 Gaussian 16, Revision B.01,
 Gaussian 16:  ES64L-G16RevB.01 20-Dec-2017

 ----------------------------------
 # opt=z-matrix 6-311++g(d,p) m062x
 ----------------------------------

 ----
 test
 ----
 Symbolic Z-matrix:
 Charge =  0 Multiplicity = 1

 SCF Done:  E(RM062X) =  -1073.27863346     A.U. after   15 cycles
 SCF Done:  E(RM062X) =  -1073.38612832     A.U. after   12 cycles
 SCF Done:  E(RM062X) =  -1073.45086443     A.U. after   13 cycles
 SCF Done:  E(RM062X) =  -1073.45344139     A.U. after   13 cycles
 SCF Done:  E(RM062X) =  -1073.45319630     A.U. after   13 cycles
 SCF Done:  E(RM062X) =  -1073.45392039     A.U. after   11 cycles
 SCF Done:  E(RM062X) =  -1073.45395890     A.U. after   11 cycles
 SCF Done:  E(RM062X) =  -1073.45399904     A.U. after   11 cycles
 SCF Done:  E(RM062X) =  -1073.45402276     A.U. after   12 cycles
 SCF Done:  E(RM062X) =  -1073.45402466     A.U. after   10 cycles
 SCF Done:  E(RM062X) =  -1073.45402493     A.U. after    9 cycles
 SCF Done:  E(RM062X) =  -1073.45402489     A.U. after    7 cycles
 SCF Done:  E(RM062X) =  -1073.45402507     A.U. after    9 cycles
 Optimization completed.
    -- Stationary point found.

                         Standard orientation:
 ---------------------------------------------------------------------
 Center     Atomic      Atomic             Coordinates (Angstroms)
 Number     Number       Type             X           Y           Z
 ---------------------------------------------------------------------
      1          6           0       -0.089954   -0.090243    1.396351
      2          6           0       -1.293489    0.075116    2.067751
      3          6           0       -1.326555    0.029173    3.456240
      4          6           0       -0.156791   -0.181943    4.171260
      5          6           0        1.045856   -0.347180    3.500356
      6          6           0        1.074214   -0.336934    2.110390
      7          9           0       -0.057524   -0.045184    0.034576
      8          1           0       -2.206957    0.239976    1.509391
      9          1           0       -2.265161    0.158132    3.979847
     10          1           0       -0.182560   -0.217746    5.253298
     11          1           0        1.958699   -0.511927    4.058333
     12          1           0        2.018819   -0.429898    1.588253
     13          8           0        0.007153    0.044680   -2.681260
     14          6           0        0.037802    0.084060   -3.881288
     15          1           0        0.200014    1.044836   -4.397403
     16          1           0       -0.097774   -0.840486   -4.466972
     17          1           0        0.280354    2.050180   -0.260453
     18          7           0        0.440877    3.034635   -0.399072
     19          6           0        1.716462    3.501973   -0.469287
     20          8           0        1.986232    4.670919   -0.634174
     21          6           0       -0.652573    3.978906   -0.527447
     22          1           0       -0.274656    4.986564   -0.670118
     23          1           0       -1.282989    3.725963   -1.383873
     24          1           0       -1.276540    3.971877    0.370041
     25          1           0        2.479418    2.713548   -0.361548
     26          1           0       -2.116310   -0.825434   -0.431381
     27          7           0       -3.037972   -1.175707   -0.638514
     28          6           0       -4.077113   -0.303508   -0.750076
     29          8           0       -5.210157   -0.650578   -0.996674
     30          6           0       -3.296524   -2.591385   -0.823437
     31          1           0       -4.346492   -2.764911   -1.037699
     32          1           0       -2.708358   -2.985980   -1.655548
     33          1           0       -3.034254   -3.152788    0.076766
     34          1           0       -3.785880    0.749159   -0.593948
     35          1           0        1.692499   -1.441271   -0.365160
     36          7           0        2.468207   -2.058890   -0.543720
     37          6           0        3.728729   -1.549049   -0.614170
     38          8           0        4.707576   -2.228670   -0.825011
     39          6           0        2.284859   -3.486007   -0.729880
     40          1           0        3.237187   -3.974959   -0.910003
     41          1           0        1.832031   -3.936252    0.157036
     42          1           0        1.632558   -3.683460   -1.584059
     43          1           0        3.770314   -0.457417   -0.460464
 ---------------------------------------------------------------------

 The electronic state is 1-A.
 Alpha  occ. eigenvalues --  -25.30433 -19.66334 -19.59978 -19.59867 -19.59199
 Alpha  occ. eigenvalues --  -14.78391 -14.78300 -14.77575 -10.66813 -10.65825
 Alpha  occ. eigenvalues --  -10.64942 -10.64832 -10.64146 -10.58584 -10.58576
 Alpha  occ. eigenvalues --  -10.58327 -10.58312 -10.57575 -10.57523 -10.57450
 Alpha  occ. eigenvalues --  -10.56970  -1.41870  -1.21134  -1.17339  -1.17235
 Alpha  occ. eigenvalues --   -1.16547  -1.04064  -1.03969  -1.03285  -1.00616
 Alpha  occ. eigenvalues --   -0.88938  -0.88557  -0.81621  -0.81534  -0.80954
 Alpha  occ. eigenvalues --   -0.74618  -0.74589  -0.73839  -0.68872  -0.68734
 Alpha  occ. eigenvalues --   -0.68207  -0.66783  -0.63896  -0.63726  -0.63285
 Alpha  occ. eigenvalues --   -0.61530  -0.61066  -0.60735  -0.60309  -0.55721
 Alpha  occ. eigenvalues --   -0.55055  -0.54680  -0.54497  -0.53898  -0.53735
 Alpha  occ. eigenvalues --   -0.53437  -0.53060  -0.52876  -0.52400  -0.49877
 Alpha  occ. eigenvalues --   -0.49776  -0.49543  -0.49114  -0.47377  -0.46731
 Alpha  occ. eigenvalues --   -0.46447  -0.46385  -0.46288  -0.46149  -0.45861
 Alpha  occ. eigenvalues --   -0.45651  -0.44248  -0.36639  -0.34988  -0.34508
 Alpha  occ. eigenvalues --   -0.34405  -0.34211  -0.33738  -0.32795  -0.32699
 Alpha  occ. eigenvalues --   -0.32052
 Alpha virt. eigenvalues --   -0.02865  -0.02263  -0.02097  -0.01448  -0.01254
 Alpha virt. eigenvalues --   -0.00732  -0.00363   0.00306   0.01007   0.01047
 Alpha virt. eigenvalues --    0.01542   0.01619   0.02198   0.02373   0.03177

 Mulliken charges:
               1
     1  C    0.316327
     2  C    0.082962
     3  C   -0.345314
     4  C   -0.537482
     5  C   -0.432088
     6  C    0.193676
     7  F   -0.028369
     8  H    0.039089
     9  H    0.257928
    10  H    0.196143
    11  H    0.257733
    12  H    0.086808
    13  O   -0.178488
    14  C    0.032859
    15  H    0.118474
    16  H    0.119806
    17  H    0.051988
    18  N   -0.051746
    19  C    0.084908
    20  O   -0.375815
    21  C   -0.434657
    22  H    0.203117
    23  H    0.176110
    24  H    0.169540
    25  H    0.132370
    26  H   -0.038187
    27  N   -0.025885
    28  C    0.110811
    29  O   -0.377960
    30  C   -0.413050
    31  H    0.203530
    32  H    0.177589
    33  H    0.170109
    34  H    0.120848
    35  H   -0.020424
    36  N   -0.028374
    37  C    0.100715
    38  O   -0.372034
    39  C   -0.420549
    40  H    0.203753
    41  H    0.170279
    42  H    0.177075
    43  H    0.125873
 Sum of Mulliken charges =  -0.00000

 Dipole moment (field-independent basis, Debye):
    X=             -2.1766    Y=             -2.8771    Z=              1.6325  Tot=              3.9599
 Quadrupole moment (field-independent basis, Debye-Ang):
   XX=           -183.3615   YY=           -148.7913   ZZ=            -99.3839
   XY=             -5.5923   XZ=              0.1359   YZ=              1.0892

 Normal termination of Gaussian 16 at Tue Mar 26 21:51:35 2024.
