 Gaussian 16, Revision B.01,
 Gaussian 16:  ES64L-G16RevB.01 20-Dec-2017

 -------------------------------------------------------
 # m062x 6-311++G(d,p) opt=z-matrix scrf=(solvent=water)
 -------------------------------------------------------

 ----
 test
 ----
 Symbolic Z-matrix:
 Charge =  0 Multiplicity = 1

 SCF Done:  E(RM062X) =  -1367.06148243     A.U. after   14 cycles
 SCF Done:  E(RM062X) =  -1367.32138984     A.U. after   13 cycles
 SCF Done:  E(RM062X) =  -1367.52435675     A.U. after   14 cycles
 SCF Done:  E(RM062X) =  -1367.54021418     A.U. after   12 cycles
 SCF Done:  E(RM062X) =  -1367.54041767     A.U. after   11 cycles
 SCF Done:  E(RM062X) =  -1367.54228194     A.U. after   11 cycles
 SCF Done:  E(RM062X) =  -1367.54261529     A.U. after   12 cycles
 SCF Done:  E(RM062X) =  -1367.54313899     A.U. after   11 cycles
 SCF Done:  E(RM062X) =  -1367.54316424     A.U. after    9 cycles
 SCF Done:  E(RM062X) =  -1367.54223746     A.U. after   11 cycles
 SCF Done:  E(RM062X) =  -1367.54315183     A.U. after   11 cycles
 SCF Done:  E(RM062X) =  -1367.54316495     A.U. after    4 cycles
 SCF Done:  E(RM062X) =  -1367.54307348     A.U. after   11 cycles
 SCF Done:  E(RM062X) =  -1367.54319721     A.U. after    9 cycles
 SCF Done:  E(RM062X) =  -1367.54319830     A.U. after    8 cycles
 Optimization completed.
    -- Stationary point found.

                         Standard orientation:
 ---------------------------------------------------------------------
 Center     Atomic      Atomic             Coordinates (Angstroms)
 Number     Number       Type             X           Y           Z
 ---------------------------------------------------------------------
      1          6           0       -0.004836   -0.856898    0.000000
      2          6           0       -1.198134   -1.545849    0.000000
      3          6           0       -1.198134   -2.928476    0.000000
      4          6           0        0.003604   -3.622299   -0.000000
      5          6           0        1.212357   -2.924425   -0.000000
      6          6           0        1.212357   -1.524423   -0.000000
      7          9           0       -0.004836    0.505036    0.000000
      8          1           0       -2.136997   -1.003796    0.000000
      9          1           0       -2.135682   -3.469769    0.000000
     10          1           0        0.003604   -4.705261   -0.000000
     11          1           0        2.149839   -3.465680   -0.000000
     12          1           0        2.138412   -0.962278   -0.000000
     13          8           0        0.000317    3.457334   -0.000000
     14          6           0        0.003859    4.662202   -0.000000
     15          1           0        0.004726    5.212463    0.953082
     16          1           0        0.004726    5.212463   -0.953082
     17          1           0       -0.004836    0.861774    2.023164
     18         17           0       -0.004836    0.638098    3.291697
     19          1           0       -0.004836    0.861774   -2.023164
     20         17           0       -0.004836    0.638098   -3.291697
 ---------------------------------------------------------------------

 The electronic state is 1-A'.
 Alpha  occ. eigenvalues -- -102.67880-102.67880 -25.28348 -19.64558 -10.64459
 Alpha  occ. eigenvalues --  -10.63867 -10.56453 -10.56301 -10.56172 -10.56027
 Alpha  occ. eigenvalues --  -10.55530  -9.82201  -9.82201  -7.54683  -7.54683
 Alpha  occ. eigenvalues --   -7.54069  -7.54069  -7.54067  -7.54067  -1.39900
 Alpha  occ. eigenvalues --   -1.19231  -0.98469  -0.94145  -0.94102  -0.86725
 Alpha  occ. eigenvalues --   -0.86345  -0.72363  -0.72265  -0.71824  -0.64606
 Alpha  occ. eigenvalues --   -0.61176  -0.59306  -0.58496  -0.58283  -0.53951
 Alpha  occ. eigenvalues --   -0.53310  -0.52657  -0.52108  -0.51049  -0.50063
 Alpha  occ. eigenvalues --   -0.47758  -0.45390  -0.44213  -0.42067  -0.39977
 Alpha  occ. eigenvalues --   -0.39952  -0.39937  -0.39929  -0.34864  -0.32849
 Alpha  occ. eigenvalues --   -0.32076
 Alpha virt. eigenvalues --   -0.00742  -0.00308   0.00058   0.00693   0.00776
 Alpha virt. eigenvalues --    0.01375   0.01860   0.02084   0.03324   0.03350
 Alpha virt. eigenvalues --    0.04084   0.05007   0.06523   0.06577   0.07286

 Mulliken charges:
               1
     1  C   -0.446396
     2  C    0.013711
     3  C   -0.182008
     4  C   -0.317597
     5  C   -0.196130
     6  C    0.009942
     7  F   -0.106249
     8  H    0.237151
     9  H    0.250115
    10  H    0.213023
    11  H    0.250903
    12  H    0.238445
    13  O   -0.289773
    14  C    0.045016
    15  H    0.136591
    16  H    0.136591
    17  H    0.130195
    18  Cl  -0.126861
    19  H    0.130195
    20  Cl  -0.126861
 Sum of Mulliken charges =  -0.00000

 Dipole moment (field-independent basis, Debye):
    X=             -0.0075    Y=              0.9814    Z=             -0.0000  Tot=              0.9814
 Quadrupole moment (field-independent basis, Debye-Ang):
   XX=            -72.9283   YY=            -45.1294   ZZ=            -97.7798
   XY=              0.1594   XZ=             -0.0000   YZ=              0.0000

 Normal termination of Gaussian 16 at Wed Apr  3 14:19:13 2024.
