 Gaussian 16, Revision B.01,
 Gaussian 16:  ES64L-G16RevB.01 20-Dec-2017

 ------------------------------------------------------------
 # m062x 6-311++G(d,p) opt=z-matrix scrf=(solvent=chloroform)
 ------------------------------------------------------------

 ----
 test
 ----
 Symbolic Z-matrix:
 Charge =  0 Multiplicity = 1

 SCF Done:  E(RM062X) =  -747.190397842     A.U. after   14 cycles
 SCF Done:  E(RM062X) =  -747.266452359     A.U. after   13 cycles
 SCF Done:  E(RM062X) =  -747.286999892     A.U. after   12 cycles
 SCF Done:  E(RM062X) =  -747.287459477     A.U. after   10 cycles
 SCF Done:  E(RM062X) =  -747.288481668     A.U. after   11 cycles
 SCF Done:  E(RM062X) =  -747.288616540     A.U. after   10 cycles
 SCF Done:  E(RM062X) =  -747.288636253     A.U. after   10 cycles
 SCF Done:  E(RM062X) =  -747.288690632     A.U. after    9 cycles
 SCF Done:  E(RM062X) =  -747.288705106     A.U. after    9 cycles
 SCF Done:  E(RM062X) =  -747.288706627     A.U. after    9 cycles
 SCF Done:  E(RM062X) =  -747.288706697     A.U. after    7 cycles
 Optimization completed.
    -- Stationary point found.

                         Standard orientation:
 ---------------------------------------------------------------------
 Center     Atomic      Atomic             Coordinates (Angstroms)
 Number     Number       Type             X           Y           Z
 ---------------------------------------------------------------------
      1          6           0       -0.793480    0.006860    0.014673
      2          6           0       -1.482624    1.199672   -0.000863
      3          6           0       -2.865269    1.199218   -0.009070
      4          6           0       -3.558211   -0.001750   -0.001665
      5          6           0       -2.860727   -1.208996    0.014059
      6          6           0       -1.462860   -1.208537    0.022356
      7          9           0        0.595877    0.007316    0.022920
      8          1           0       -0.941526    2.137474   -0.006646
      9          1           0       -3.406670    2.136308   -0.021275
     10          1           0       -4.641106   -0.002105   -0.008092
     11          1           0       -3.401582   -2.146376    0.019839
     12          1           0       -0.903144   -2.134279    0.034561
     13          8           0        3.204881    0.003620    0.038450
     14          6           0        4.409246    0.000541    0.045632
     15          1           0        4.953972    0.009018    1.002164
     16          1           0        4.965305   -0.009272   -0.904366
     17          1           0        0.912810    0.025267    1.884844
     18          9           0        0.746878    0.033947    2.794233
     19          1           0        0.960316    1.760220   -1.009450
     20          9           0        0.802414    2.543530   -1.472746
     21          1           0        0.965670   -1.786207   -0.987648
     22          9           0        0.808216   -2.578244   -1.435769
 ---------------------------------------------------------------------

 The electronic state is 1-A.
 Alpha  occ. eigenvalues --  -25.30621 -25.23666 -25.23604 -25.22807 -19.65176
 Alpha  occ. eigenvalues --  -10.65384 -10.64519 -10.57080 -10.56819 -10.56757
 Alpha  occ. eigenvalues --  -10.56508 -10.56028  -1.41406  -1.34781  -1.34714
 Alpha  occ. eigenvalues --   -1.33861  -1.19863  -0.99174  -0.87348  -0.87176
 Alpha  occ. eigenvalues --   -0.73462  -0.73186  -0.72414  -0.65823  -0.65517
 Alpha  occ. eigenvalues --   -0.65000  -0.64312  -0.60317  -0.59860  -0.59318
 Alpha  occ. eigenvalues --   -0.58884  -0.54615  -0.53655  -0.53137  -0.52060
 Alpha  occ. eigenvalues --   -0.51973  -0.51903  -0.51462  -0.51189  -0.51176
 Alpha  occ. eigenvalues --   -0.50273  -0.48374  -0.46015  -0.44716  -0.42630
 Alpha  occ. eigenvalues --   -0.35499  -0.33265  -0.32896
 Alpha virt. eigenvalues --   -0.01420  -0.00539  -0.00273   0.00340   0.00539
 Alpha virt. eigenvalues --    0.01262   0.01856   0.02062   0.03073   0.03354
 Alpha virt. eigenvalues --    0.04708   0.05724   0.06110   0.06819   0.07749

 Mulliken charges:
               1
     1  C   -0.208404
     2  C   -0.031496
     3  C   -0.253271
     4  C   -0.165608
     5  C   -0.262706
     6  C   -0.043374
     7  F   -0.169960
     8  H    0.211655
     9  H    0.239135
    10  H    0.215048
    11  H    0.240351
    12  H    0.211069
    13  O   -0.291519
    14  C    0.022440
    15  H    0.138857
    16  H    0.142299
    17  H    0.283168
    18  F   -0.270935
    19  H    0.250085
    20  F   -0.253923
    21  H    0.250337
    22  F   -0.253248
 Sum of Mulliken charges =  -0.00000

 Dipole moment (field-independent basis, Debye):
    X=              0.8877    Y=             -0.0072    Z=             -0.1428  Tot=              0.8991
 Quadrupole moment (field-independent basis, Debye-Ang):
   XX=            -33.7529   YY=            -76.3802   ZZ=            -86.8160
   XY=             -0.1180   XZ=              0.2858   YZ=             -0.1298

 1\1\GINC-R820\POpt\RM062X\6-311++G(d,p)\C7H10F4O1\ZJXU\17-Jun-2024\1\\
 # m062x 6-311++G(d,p) opt=z-matrix scrf=(solvent=chloroform)\\test\\0,
 1\C\C,1,d1\C,2,d2,1,120.\C,3,d3,2,120.,1,0.,0\C,4,d4,3,120.,2,0.,0\C,5
 ,d5,4,120.,3,0.,0\F,1,d6,2,120.,3,180.,0\H,2,d7,3,120.,4,180.,0\H,3,d8
 ,4,120.,5,180.,0\H,4,d9,5,120.,6,180.,0\H,5,d10,6,120.,1,180.,0\H,6,d1
 1,1,120.,2,180.,0\O,7,d12,1,179.9,3,180.,0\C,13,d13,1,179.9,2,180.,0\H
 ,14,d14,1,120.,2,90.,0\H,14,d15,1,120.,2,-90.,0\H,7,d16,1,100.,2,90.,0
 \F,17,d17,7,160.,1,0.,0\H,7,d18,1,100.,2,-30.,0\F,19,d19,7,160.,1,0.,0

 Normal termination of Gaussian 16 at Mon Jun 17 10:25:27 2024.
