 Gaussian 16, Revision B.01,
 Gaussian 16:  ES64L-G16RevB.01 20-Dec-2017

 ----------------------------------
 # m062x 6-311++G(d,p) opt=z-matrix
 ----------------------------------

 ----
 test
 ----
 Symbolic Z-matrix:
 Charge =  0 Multiplicity = 1

 SCF Done:  E(RM062X) =  -3020.23664449     A.U. after   14 cycles
 SCF Done:  E(RM062X) =  -3020.50274492     A.U. after   14 cycles
 SCF Done:  E(RM062X) =  -3020.68524894     A.U. after   15 cycles
 SCF Done:  E(RM062X) =  -3020.69488671     A.U. after   15 cycles
 SCF Done:  E(RM062X) =  -3020.69847883     A.U. after   12 cycles
 SCF Done:  E(RM062X) =  -3020.69889435     A.U. after   12 cycles
 SCF Done:  E(RM062X) =  -3020.69894673     A.U. after   11 cycles
 SCF Done:  E(RM062X) =  -3020.69895601     A.U. after   11 cycles
 SCF Done:  E(RM062X) =  -3020.69896274     A.U. after   11 cycles
 SCF Done:  E(RM062X) =  -3020.69896208     A.U. after   11 cycles
 SCF Done:  E(RM062X) =  -3020.69897512     A.U. after    5 cycles
 SCF Done:  E(RM062X) =  -3020.69897461     A.U. after   10 cycles
 SCF Done:  E(RM062X) =  -3020.69897811     A.U. after    8 cycles
 SCF Done:  E(RM062X) =  -3020.69897817     A.U. after    8 cycles
 SCF Done:  E(RM062X) =  -3020.69897814     A.U. after    7 cycles
 SCF Done:  E(RM062X) =  -3020.69897815     A.U. after    6 cycles
 SCF Done:  E(RM062X) =  -3020.69897816     A.U. after    6 cycles
 SCF Done:  E(RM062X) =  -3020.69897816     A.U. after    5 cycles
 SCF Done:  E(RM062X) =  -3020.69897812     A.U. after    7 cycles
 SCF Done:  E(RM062X) =  -3020.69897816     A.U. after    7 cycles
 Optimization completed.
    -- Stationary point found.

                         Standard orientation:
 ---------------------------------------------------------------------
 Center     Atomic      Atomic             Coordinates (Angstroms)
 Number     Number       Type             X           Y           Z
 ---------------------------------------------------------------------
      1          6           0       -1.117194   -0.970624   -0.006840
      2          6           0       -1.786340   -0.801940   -1.201386
      3          6           0       -3.129538   -0.469212   -1.201037
      4          6           0       -3.803280   -0.305263    0.000656
      5          6           0       -3.126989   -0.475748    1.207957
      6          6           0       -1.770690   -0.811720    1.207606
      7          9           0        0.190383   -1.294527   -0.007179
      8          1           0       -1.260096   -0.929997   -2.140000
      9          1           0       -3.654744   -0.336814   -2.138624
     10          1           0       -4.854598   -0.044838    0.000929
     11          1           0       -3.652771   -0.347803    2.145749
     12          1           0       -1.229430   -0.948072    2.135689
     13          8           0        3.130308   -2.022797   -0.002655
     14          6           0        4.294144   -2.311102    0.000584
     15          1           0        5.059592   -1.516044    0.003593
     16          1           0        4.599975   -3.371572   -0.000955
     17          1           0        1.040904    0.623616   -0.002355
     18         35           0        1.138131    2.045094    0.001045
 ---------------------------------------------------------------------

 The electronic state is 1-A.
 Alpha  occ. eigenvalues -- -485.32430 -63.31656 -57.14382 -57.14154 -57.14153
 Alpha  occ. eigenvalues --  -25.26073 -19.64399 -10.63953 -10.63482 -10.55868
 Alpha  occ. eigenvalues --  -10.55661 -10.55659 -10.55437 -10.55079  -9.00369
 Alpha  occ. eigenvalues --   -6.83119  -6.82171  -6.82167  -2.86297  -2.85925
 Alpha  occ. eigenvalues --   -2.85923  -2.85100  -2.85100  -1.38048  -1.19284
 Alpha  occ. eigenvalues --   -0.97734  -0.86381  -0.86159  -0.85537  -0.72499
 Alpha  occ. eigenvalues --   -0.71659  -0.70923  -0.63695  -0.58561  -0.58204
 Alpha  occ. eigenvalues --   -0.58117  -0.57853  -0.53581  -0.52352  -0.50529
 Alpha  occ. eigenvalues --   -0.48859  -0.48088  -0.47627  -0.44371  -0.43842
 Alpha  occ. eigenvalues --   -0.41539  -0.34957  -0.34927  -0.34623  -0.32191
 Alpha  occ. eigenvalues --   -0.30997
 Alpha virt. eigenvalues --   -0.00988  -0.00171   0.00257   0.00682   0.01184
 Alpha virt. eigenvalues --    0.01655   0.01820   0.02502   0.03284   0.03322
 Alpha virt. eigenvalues --    0.04170   0.06245   0.06341   0.06877   0.07030

 Mulliken charges:
               1
     1  C   -1.012285
     2  C    0.505290
     3  C   -0.448935
     4  C   -0.045042
     5  C   -0.452457
     6  C    0.476731
     7  F   -0.116170
     8  H    0.233510
     9  H    0.206753
    10  H    0.197839
    11  H    0.207576
    12  H    0.234571
    13  O   -0.233017
    14  C    0.028406
    15  H    0.110560
    16  H    0.108505
    17  H    0.111221
    18  Br  -0.113057
 Sum of Mulliken charges =  -0.00000

 Dipole moment (field-independent basis, Debye):
    X=              0.4971    Y=             -1.6706    Z=             -0.0036  Tot=              1.7430
 Quadrupole moment (field-independent basis, Debye-Ang):
   XX=            -47.8919   YY=            -74.1367   ZZ=            -66.0033
   XY=             -9.1327   XZ=              0.0946   YZ=             -0.0427

 Normal termination of Gaussian 16 at Wed Mar 27 16:34:23 2024.
