 Gaussian 16, Revision B.01,
 Gaussian 16:  ES64L-G16RevB.01 20-Dec-2017

 ----------------------------------
 # m062x 6-311++G(d,p) opt=z-matrix
 ----------------------------------

 ----
 test
 ----
 Symbolic Z-matrix:
 Charge =  0 Multiplicity = 1

 SCF Done:  E(RM062X) =  -5594.64545390     A.U. after   14 cycles
 SCF Done:  E(RM062X) =  -5595.04275855     A.U. after   14 cycles
 SCF Done:  E(RM062X) =  -5595.39354720     A.U. after   14 cycles
 SCF Done:  E(RM062X) =  -5595.44385590     A.U. after   14 cycles
 SCF Done:  E(RM062X) =  -5595.47030630     A.U. after   14 cycles
 SCF Done:  E(RM062X) =  -5595.46013967     A.U. after   13 cycles
 SCF Done:  E(RM062X) =  -5595.47140498     A.U. after   12 cycles
 SCF Done:  E(RM062X) =  -5595.47179417     A.U. after   12 cycles
 SCF Done:  E(RM062X) =  -5595.47195034     A.U. after   11 cycles
 SCF Done:  E(RM062X) =  -5595.47198477     A.U. after   10 cycles
 SCF Done:  E(RM062X) =  -5595.47200159     A.U. after    9 cycles
 SCF Done:  E(RM062X) =  -5595.47200378     A.U. after   10 cycles
 SCF Done:  E(RM062X) =  -5595.47200654     A.U. after   10 cycles
 SCF Done:  E(RM062X) =  -5595.47200749     A.U. after    8 cycles
 SCF Done:  E(RM062X) =  -5595.47200776     A.U. after    7 cycles
 SCF Done:  E(RM062X) =  -5595.47200781     A.U. after    8 cycles
 Optimization completed.
    -- Stationary point found.

                         Standard orientation:
 ---------------------------------------------------------------------
 Center     Atomic      Atomic             Coordinates (Angstroms)
 Number     Number       Type             X           Y           Z
 ---------------------------------------------------------------------
      1          6           0       -0.003340   -0.985198    0.000000
      2          6           0       -1.196506   -1.674073    0.000000
      3          6           0       -1.196506   -3.056658    0.000000
      4          6           0        0.004370   -3.749983    0.000000
      5          6           0        1.212171   -3.052659    0.000000
      6          6           0        1.212171   -1.654761    0.000000
      7          9           0       -0.003340    0.370899   -0.000000
      8          1           0       -2.135165   -1.132138    0.000000
      9          1           0       -2.134110   -3.597984    0.000000
     10          1           0        0.004370   -4.832995    0.000000
     11          1           0        2.149697   -3.593940    0.000000
     12          1           0        2.139108   -1.094450    0.000000
     13          8           0        0.001425    3.101231   -0.000000
     14          6           0        0.004919    4.301112   -0.000000
     15          1           0        0.005781    4.852724    0.955422
     16          1           0        0.005781    4.852724   -0.955422
     17          1           0       -0.003340    0.735369    2.067011
     18         35           0       -0.003340    0.488010    3.469853
     19          1           0       -0.003340    0.735369   -2.067011
     20         35           0       -0.003340    0.488010   -3.469853
 ---------------------------------------------------------------------

 The electronic state is 1-A'.
 Alpha  occ. eigenvalues -- -485.32834-485.32834 -63.32059 -63.32059 -57.14786
 Alpha  occ. eigenvalues --  -57.14786 -57.14557 -57.14557 -57.14556 -57.14556
 Alpha  occ. eigenvalues --  -25.27561 -19.65064 -10.64568 -10.64146 -10.56369
 Alpha  occ. eigenvalues --  -10.56286 -10.56126 -10.56031 -10.55581  -9.00773
 Alpha  occ. eigenvalues --   -9.00773  -6.83524  -6.83524  -6.82572  -6.82572
 Alpha  occ. eigenvalues --   -6.82570  -6.82570  -2.86702  -2.86702  -2.86329
 Alpha  occ. eigenvalues --   -2.86329  -2.86328  -2.86328  -2.85502  -2.85502
 Alpha  occ. eigenvalues --   -2.85502  -2.85502  -1.39284  -1.19909  -0.98338
 Alpha  occ. eigenvalues --   -0.86811  -0.86769  -0.86701  -0.86204  -0.73171
 Alpha  occ. eigenvalues --   -0.72254  -0.71658  -0.64474  -0.60040  -0.59107
 Alpha  occ. eigenvalues --   -0.59010  -0.58575  -0.54263  -0.52824  -0.51096
 Alpha  occ. eigenvalues --   -0.49820  -0.49004  -0.48261  -0.48118  -0.45027
 Alpha  occ. eigenvalues --   -0.44346  -0.42146  -0.35556  -0.35339  -0.35301
 Alpha  occ. eigenvalues --   -0.35296  -0.35135  -0.32651  -0.31674
 Alpha virt. eigenvalues --   -0.01562  -0.00471   0.00086   0.00197   0.00988
 Alpha virt. eigenvalues --    0.00993   0.01533   0.01951   0.02744   0.03004
 Alpha virt. eigenvalues --    0.03454   0.04368   0.05736   0.06106   0.06384

 Mulliken charges:
               1
     1  C   -0.745872
     2  C    0.103163
     3  C   -0.068021
     4  C   -0.349507
     5  C   -0.087347
     6  C    0.095210
     7  F   -0.077070
     8  H    0.204847
     9  H    0.222073
    10  H    0.180603
    11  H    0.222894
    12  H    0.206616
    13  O   -0.230817
    14  C    0.023981
    15  H    0.115539
    16  H    0.115539
    17  H    0.167319
    18  Br  -0.133234
    19  H    0.167319
    20  Br  -0.133234
 Sum of Mulliken charges =  -0.00000

 Dipole moment (field-independent basis, Debye):
    X=              0.0009    Y=              0.8458    Z=             -0.0000  Tot=              0.8458
 Quadrupole moment (field-independent basis, Debye-Ang):
   XX=            -85.8753   YY=            -64.4498   ZZ=           -105.2566
   XY=              0.1161   XZ=              0.0000   YZ=              0.0000

 Normal termination of Gaussian 16 at Wed Mar 27 15:38:40 2024.
