 Gaussian 16, Revision B.01,
 Gaussian 16:  ES64L-G16RevB.01 20-Dec-2017

 ----------------------------------
 # m062x 6-311++G(d,p) opt=z-matrix
 ----------------------------------

 ----
 test
 ----
 Symbolic Z-matrix:
 Charge =  0 Multiplicity = 1

 SCF Done:  E(RM062X) =  -8170.14364620     A.U. after   14 cycles
 SCF Done:  E(RM062X) =  -8170.21853309     A.U. after   14 cycles
 SCF Done:  E(RM062X) =  -8170.23879925     A.U. after   14 cycles
 SCF Done:  E(RM062X) =  -8170.23936901     A.U. after   11 cycles
 SCF Done:  E(RM062X) =  -8170.23981733     A.U. after   12 cycles
 SCF Done:  E(RM062X) =  -8170.23986527     A.U. after   10 cycles
 SCF Done:  E(RM062X) =  -8170.23986232     A.U. after   12 cycles
 SCF Done:  E(RM062X) =  -8170.23987170     A.U. after    9 cycles
 SCF Done:  E(RM062X) =  -8170.23984886     A.U. after   12 cycles
 SCF Done:  E(RM062X) =  -8170.23987238     A.U. after    8 cycles
 SCF Done:  E(RM062X) =  -8170.23987259     A.U. after    8 cycles
 SCF Done:  E(RM062X) =  -8170.23987298     A.U. after    8 cycles
 SCF Done:  E(RM062X) =  -8170.23987309     A.U. after    7 cycles
 SCF Done:  E(RM062X) =  -8170.23987344     A.U. after    8 cycles
 Optimization completed.
    -- Stationary point found.

                         Standard orientation:
 ---------------------------------------------------------------------
 Center     Atomic      Atomic             Coordinates (Angstroms)
 Number     Number       Type             X           Y           Z
 ---------------------------------------------------------------------
      1          6           0       -0.015718    0.241064    1.110648
      2          6           0       -1.213254    0.299005    1.793307
      3          6           0       -1.219325    0.470158    3.166418
      4          6           0       -0.021513    0.583463    3.856461
      5          6           0        1.187954    0.524945    3.167001
      6          6           0        1.194080    0.352251    1.781525
      7          9           0       -0.009746    0.072729   -0.239864
      8          1           0       -2.148109    0.210574    1.254749
      9          1           0       -2.159005    0.515623    3.702086
     10          1           0       -0.026265    0.717418    4.931143
     11          1           0        2.122818    0.613377    3.705563
     12          1           0        2.124262    0.304723    1.231051
     13          8           0        0.007263   -0.270214   -2.992080
     14          6           0        0.016030   -0.418611   -4.183261
     15          1           0       -0.002225    0.460785   -4.848697
     16          1           0        0.040852   -1.434472   -4.612317
     17          1           0       -0.054967    2.087743   -0.860261
     18         35           0       -0.087673    3.509543   -0.788439
     19          1           0       -2.189900   -1.300317   -0.532121
     20         35           0       -3.388658   -1.992785   -0.202059
     21          1           0        2.262170   -1.216101   -0.529051
     22         35           0        3.490343   -1.852925   -0.195197
 ---------------------------------------------------------------------

 The electronic state is 1-A.
 Alpha  occ. eigenvalues -- -485.34310-485.34280-485.33072 -63.33531 -63.33502
 Alpha  occ. eigenvalues --  -63.32297 -57.16266 -57.16236 -57.16025 -57.16023
 Alpha  occ. eigenvalues --  -57.15996 -57.15994 -57.15024 -57.14794 -57.14793
 Alpha  occ. eigenvalues --  -25.27839 -19.65523 -10.65036 -10.64465 -10.56515
 Alpha  occ. eigenvalues --  -10.56432 -10.56315 -10.56218 -10.55735  -9.02245
 Alpha  occ. eigenvalues --   -9.02216  -9.01010  -6.85022  -6.84992  -6.84031
 Alpha  occ. eigenvalues --   -6.84021  -6.84003  -6.83992  -6.83763  -6.82808
 Alpha  occ. eigenvalues --   -6.82804  -2.88198  -2.88168  -2.87815  -2.87806
 Alpha  occ. eigenvalues --   -2.87785  -2.87776  -2.86946  -2.86945  -2.86941
 Alpha  occ. eigenvalues --   -2.86918  -2.86917  -2.86568  -2.86565  -2.85736
 Alpha  occ. eigenvalues --   -2.85736  -1.39349  -1.20357  -0.98551  -0.88316
 Alpha  occ. eigenvalues --   -0.88264  -0.87025  -0.86862  -0.86425  -0.73584
 Alpha  occ. eigenvalues --   -0.72508  -0.71853  -0.64651  -0.59706  -0.59469
 Alpha  occ. eigenvalues --   -0.59328  -0.58909  -0.54736  -0.53139  -0.51796
 Alpha  occ. eigenvalues --   -0.50409  -0.50207  -0.50050  -0.48777  -0.48740
 Alpha  occ. eigenvalues --   -0.45257  -0.44546  -0.42414  -0.36654  -0.36637
 Alpha  occ. eigenvalues --   -0.36595  -0.36568  -0.35863  -0.35535  -0.35473
 Alpha  occ. eigenvalues --   -0.32787  -0.31932
 Alpha virt. eigenvalues --   -0.02066  -0.00877  -0.00064  -0.00028   0.00695
 Alpha virt. eigenvalues --    0.00781   0.00864   0.01676   0.02169   0.02760
 Alpha virt. eigenvalues --    0.03039   0.03785   0.04177   0.04331   0.05697

 Mulliken charges:
               1
     1  C   -0.156525
     2  C    0.249552
     3  C   -0.379275
     4  C   -0.270627
     5  C   -0.376867
     6  C    0.236391
     7  F   -0.124932
     8  H    0.017095
     9  H    0.229278
    10  H    0.190665
    11  H    0.230205
    12  H    0.015515
    13  O   -0.236767
    14  C    0.018018
    15  H    0.114371
    16  H    0.120100
    17  H    0.163424
    18  Br  -0.124029
    19  H    0.163190
    20  Br  -0.120905
    21  H    0.162183
    22  Br  -0.120059
 Sum of Mulliken charges =  -0.00000

 Dipole moment (field-independent basis, Debye):
    X=              0.0173    Y=             -0.4376    Z=             -0.9510  Tot=              1.0470
 Quadrupole moment (field-independent basis, Debye-Ang):
   XX=           -113.2638   YY=           -121.5566   ZZ=            -83.8227
   XY=              0.1844   XZ=             -0.2555   YZ=              4.8044

 Normal termination of Gaussian 16 at Thu Mar 28 12:34:43 2024.
