 Gaussian 16, Revision B.01,
 Gaussian 16:  ES64L-G16RevB.01 20-Dec-2017

 ----------------------------------
 # m062x 6-311++G(d,p) opt=z-matrix
 ----------------------------------

 ----
 test
 ----
 Symbolic Z-matrix:
 Charge =  0 Multiplicity = 1

 SCF Done:  E(RM062X) =  -1827.65754435     A.U. after   14 cycles
 SCF Done:  E(RM062X) =  -1828.03451523     A.U. after   13 cycles
 SCF Done:  E(RM062X) =  -1828.30627992     A.U. after   14 cycles
 SCF Done:  E(RM062X) =  -1828.32522774     A.U. after   13 cycles
 SCF Done:  E(RM062X) =  -1828.32897277     A.U. after   12 cycles
 SCF Done:  E(RM062X) =  -1828.32977964     A.U. after   12 cycles
 SCF Done:  E(RM062X) =  -1828.33017643     A.U. after   12 cycles
 SCF Done:  E(RM062X) =  -1828.33024363     A.U. after   10 cycles
 SCF Done:  E(RM062X) =  -1828.33026141     A.U. after   10 cycles
 SCF Done:  E(RM062X) =  -1828.32720255     A.U. after   12 cycles
 SCF Done:  E(RM062X) =  -1828.32965709     A.U. after   12 cycles
 SCF Done:  E(RM062X) =  -1828.32983218     A.U. after   12 cycles
 SCF Done:  E(RM062X) =  -1828.33026616     A.U. after    7 cycles
 SCF Done:  E(RM062X) =  -1828.33022480     A.U. after   11 cycles
 SCF Done:  E(RM062X) =  -1828.33027875     A.U. after   10 cycles
 SCF Done:  E(RM062X) =  -1828.33026327     A.U. after   12 cycles
 SCF Done:  E(RM062X) =  -1828.33028510     A.U. after    9 cycles
 SCF Done:  E(RM062X) =  -1828.33028528     A.U. after    8 cycles
 SCF Done:  E(RM062X) =  -1828.33028536     A.U. after    8 cycles
 Optimization completed.
    -- Stationary point found.

                         Standard orientation:
 ---------------------------------------------------------------------
 Center     Atomic      Atomic             Coordinates (Angstroms)
 Number     Number       Type             X           Y           Z
 ---------------------------------------------------------------------
      1          6           0       -0.949394    0.004178    0.025458
      2          6           0       -1.637487    1.199534   -0.001390
      3          6           0       -3.020141    1.200856   -0.055709
      4          6           0       -3.714128    0.000546   -0.083159
      5          6           0       -3.019196   -1.206690   -0.056045
      6          6           0       -1.624265   -1.208024   -0.001243
      7          9           0        0.415916    0.002872    0.079095
      8          1           0       -1.095835    2.136366    0.020034
      9          1           0       -3.560104    2.138880   -0.076777
     10          1           0       -4.796306    0.001581   -0.125674
     11          1           0       -3.560899   -2.143612   -0.077471
     12          1           0       -1.069695   -2.136273    0.020400
     13          8           0        3.130193   -0.004465    0.185728
     14          6           0        4.329985   -0.009102    0.232863
     15          1           0        4.843467   -0.010636    1.208825
     16          1           0        4.918503   -0.010341   -0.699892
     17          1           0        0.693714    0.002216    2.120255
     18         17           0        0.421011    0.002234    3.376269
     19          1           0        0.897190    2.122225   -1.126352
     20         17           0        0.700185    3.218015   -1.766885
     21          1           0        0.893168   -2.116927   -1.127166
     22         17           0        0.694084   -3.212095   -1.768120
 ---------------------------------------------------------------------

 The electronic state is 1-A.
 Alpha  occ. eigenvalues -- -102.67942-102.67930-102.66637 -25.28453 -19.65786
 Alpha  occ. eigenvalues --  -10.65291 -10.64761 -10.56724 -10.56646 -10.56528
 Alpha  occ. eigenvalues --  -10.56447 -10.55941  -9.82263  -9.82249  -9.80954
 Alpha  occ. eigenvalues --   -7.54764  -7.54751  -7.54114  -7.54108  -7.54101
 Alpha  occ. eigenvalues --   -7.54095  -7.53445  -7.52814  -7.52811  -1.39805
 Alpha  occ. eigenvalues --   -1.20611  -0.98806  -0.94286  -0.94261  -0.92943
 Alpha  occ. eigenvalues --   -0.87122  -0.86712  -0.73856  -0.72763  -0.72151
 Alpha  occ. eigenvalues --   -0.64960  -0.60377  -0.59772  -0.59758  -0.59228
 Alpha  occ. eigenvalues --   -0.55012  -0.53777  -0.53747  -0.52986  -0.51615
 Alpha  occ. eigenvalues --   -0.51357  -0.50596  -0.49011  -0.45557  -0.44826
 Alpha  occ. eigenvalues --   -0.42838  -0.39816  -0.39797  -0.39717  -0.39547
 Alpha  occ. eigenvalues --   -0.38612  -0.38608  -0.36069  -0.33024  -0.32265
 Alpha virt. eigenvalues --   -0.02278  -0.00888  -0.00198  -0.00080   0.00661
 Alpha virt. eigenvalues --    0.00895   0.01079   0.01627   0.02505   0.02930
 Alpha virt. eigenvalues --    0.03813   0.04867   0.05242   0.06097   0.06248

 Mulliken charges:
               1
     1  C   -0.118746
     2  C    0.232412
     3  C   -0.356010
     4  C   -0.216131
     5  C   -0.353257
     6  C    0.227632
     7  F   -0.149167
     8  H   -0.021463
     9  H    0.230463
    10  H    0.190650
    11  H    0.231420
    12  H   -0.025671
    13  O   -0.238580
    14  C    0.021421
    15  H    0.118366
    16  H    0.122121
    17  H    0.123855
    18  Cl  -0.094652
    19  H    0.116126
    20  Cl  -0.078571
    21  H    0.115245
    22  Cl  -0.077462
 Sum of Mulliken charges =  -0.00000

 Dipole moment (field-independent basis, Debye):
    X=              1.0332    Y=             -0.0063    Z=             -0.2495  Tot=              1.0629
 Quadrupole moment (field-independent basis, Debye-Ang):
   XX=            -64.4210   YY=            -97.9726   ZZ=           -106.8027
   XY=             -0.1252   XZ=              1.5737   YZ=              0.0071

 Normal termination of Gaussian 16 at Thu Mar 28 12:45:58 2024.
