 Gaussian 16, Revision B.01,
 Gaussian 16:  ES64L-G16RevB.01 20-Dec-2017

 ----------------------------------
 # m062x 6-311++G(d,p) opt=z-matrix
 ----------------------------------

 ----
 test
 ----
 Symbolic Z-matrix:
 Charge =  0 Multiplicity = 1

 SCF Done:  E(RM062X) =  -1367.05212560     A.U. after   14 cycles
 SCF Done:  E(RM062X) =  -1367.31163634     A.U. after   13 cycles
 SCF Done:  E(RM062X) =  -1367.51382064     A.U. after   14 cycles
 SCF Done:  E(RM062X) =  -1367.52921423     A.U. after   12 cycles
 SCF Done:  E(RM062X) =  -1367.53141327     A.U. after   12 cycles
 SCF Done:  E(RM062X) =  -1367.53198766     A.U. after   12 cycles
 SCF Done:  E(RM062X) =  -1367.53222480     A.U. after   12 cycles
 SCF Done:  E(RM062X) =  -1367.53229242     A.U. after   10 cycles
 SCF Done:  E(RM062X) =  -1367.53232364     A.U. after   11 cycles
 SCF Done:  E(RM062X) =  -1367.53233769     A.U. after   10 cycles
 SCF Done:  E(RM062X) =  -1367.53234105     A.U. after    9 cycles
 SCF Done:  E(RM062X) =  -1367.53234234     A.U. after    8 cycles
 SCF Done:  E(RM062X) =  -1367.53234305     A.U. after    9 cycles
 SCF Done:  E(RM062X) =  -1367.53234340     A.U. after    8 cycles
 Optimization completed.
    -- Stationary point found.

                         Standard orientation:
 ---------------------------------------------------------------------
 Center     Atomic      Atomic             Coordinates (Angstroms)
 Number     Number       Type             X           Y           Z
 ---------------------------------------------------------------------
      1          6           0       -0.004592   -0.813713   -0.000000
      2          6           0       -1.197439   -1.502403   -0.000000
      3          6           0       -1.197439   -2.884674   -0.000000
      4          6           0        0.003320   -3.577933   -0.000000
      5          6           0        1.211140   -2.880597   -0.000000
      6          6           0        1.211140   -1.482449    0.000000
      7          9           0       -0.004592    0.545046    0.000000
      8          1           0       -2.136142   -0.960443   -0.000000
      9          1           0       -2.135048   -3.426003   -0.000000
     10          1           0        0.003320   -4.660964   -0.000000
     11          1           0        2.148666   -3.421879    0.000000
     12          1           0        2.137767   -0.921569    0.000000
     13          8           0        0.000107    3.237329    0.000000
     14          6           0        0.003593    4.437372    0.000000
     15          1           0        0.004453    4.988957    0.955374
     16          1           0        0.004453    4.988957   -0.955374
     17          1           0       -0.004592    0.900720    2.017128
     18         17           0       -0.004592    0.677466    3.283264
     19          1           0       -0.004592    0.900720   -2.017128
     20         17           0       -0.004592    0.677466   -3.283264
 ---------------------------------------------------------------------

 The electronic state is 1-A'.
 Alpha  occ. eigenvalues -- -102.66311-102.66311 -25.27947 -19.65216 -10.64711
 Alpha  occ. eigenvalues --  -10.64328 -10.56516 -10.56440 -10.56263 -10.56180
 Alpha  occ. eigenvalues --  -10.55715  -9.80630  -9.80629  -7.53120  -7.53120
 Alpha  occ. eigenvalues --   -7.52491  -7.52491  -7.52489  -7.52489  -1.39617
 Alpha  occ. eigenvalues --   -1.20055  -0.98503  -0.92642  -0.92596  -0.86848
 Alpha  occ. eigenvalues --   -0.86385  -0.73335  -0.72412  -0.71855  -0.64686
 Alpha  occ. eigenvalues --   -0.60724  -0.59252  -0.59243  -0.58755  -0.54431
 Alpha  occ. eigenvalues --   -0.52967  -0.51888  -0.51257  -0.50783  -0.50069
 Alpha  occ. eigenvalues --   -0.48409  -0.45235  -0.44494  -0.42310  -0.38324
 Alpha  occ. eigenvalues --   -0.38306  -0.38303  -0.38301  -0.35493  -0.32802
 Alpha  occ. eigenvalues --   -0.31918
 Alpha virt. eigenvalues --   -0.01690  -0.00471   0.00056   0.00088   0.00862
 Alpha virt. eigenvalues --    0.00962   0.01592   0.02026   0.02971   0.03151
 Alpha virt. eigenvalues --    0.04173   0.05235   0.06387   0.06978   0.07056

 Mulliken charges:
               1
     1  C   -0.527220
     2  C    0.056836
     3  C   -0.131642
     4  C   -0.286507
     5  C   -0.146297
     6  C    0.054291
     7  F   -0.107384
     8  H    0.209264
     9  H    0.219561
    10  H    0.182193
    11  H    0.220563
    12  H    0.210646
    13  O   -0.225733
    14  C    0.027436
    15  H    0.116637
    16  H    0.116637
    17  H    0.108776
    18  Cl  -0.103418
    19  H    0.108776
    20  Cl  -0.103418
 Sum of Mulliken charges =  -0.00000

 Dipole moment (field-independent basis, Debye):
    X=              0.0009    Y=              0.8589    Z=              0.0000  Tot=              0.8589
 Quadrupole moment (field-independent basis, Debye-Ang):
   XX=            -73.8173   YY=            -51.8533   ZZ=            -96.5229
   XY=              0.1165   XZ=              0.0000   YZ=             -0.0000

 Normal termination of Gaussian 16 at Thu Mar 28 11:03:21 2024.
