 Gaussian 16, Revision B.01,
 Gaussian 16:  ES64L-G16RevB.01 20-Dec-2017

 ----------------------------------------------------------------------
 # m062x 6-311++G(d,p) opt=(recalc=5,z-matrix,maxcyc=50) scrf=(solvent=
 chloroform)
 ----------------------------------------------------------------------

 ----
 test
 ----
 Symbolic Z-matrix:
 Charge =  0 Multiplicity = 1

 SCF Done:  E(RM062X) =  -1827.66350435     A.U. after   14 cycles
 SCF Done:  E(RM062X) =  -1827.96728682     A.U. after   13 cycles
 SCF Done:  E(RM062X) =  -1828.03288827     A.U. after   13 cycles
 SCF Done:  E(RM062X) =  -1828.23799685     A.U. after   13 cycles
 SCF Done:  E(RM062X) =  -1828.28068281     A.U. after   13 cycles
 SCF Done:  E(RM062X) =  -1828.31455095     A.U. after   13 cycles
 SCF Done:  E(RM062X) =  -1828.32391236     A.U. after   12 cycles
 SCF Done:  E(RM062X) =  -1828.33140483     A.U. after   12 cycles
 SCF Done:  E(RM062X) =  -1828.33338860     A.U. after   12 cycles
 SCF Done:  E(RM062X) =  -1828.33568019     A.U. after   12 cycles
 SCF Done:  E(RM062X) =  -1828.33791115     A.U. after   10 cycles
 SCF Done:  E(RM062X) =  -1828.33793669     A.U. after    9 cycles
 SCF Done:  E(RM062X) =  -1828.33809381     A.U. after   11 cycles
 SCF Done:  E(RM062X) =  -1828.33810110     A.U. after    9 cycles
 SCF Done:  E(RM062X) =  -1828.33814240     A.U. after   10 cycles
 SCF Done:  E(RM062X) =  -1828.33814705     A.U. after    8 cycles
 SCF Done:  E(RM062X) =  -1828.33816473     A.U. after    9 cycles
 SCF Done:  E(RM062X) =  -1828.33817232     A.U. after    8 cycles
 SCF Done:  E(RM062X) =  -1828.33817928     A.U. after    8 cycles
 SCF Done:  E(RM062X) =  -1828.33818357     A.U. after    8 cycles
 Optimization completed.
    -- Stationary point found.

                         Standard orientation:
 ---------------------------------------------------------------------
 Center     Atomic      Atomic             Coordinates (Angstroms)
 Number     Number       Type             X           Y           Z
 ---------------------------------------------------------------------
      1          6           0       -0.973018    0.004448    0.034158
      2          6           0       -1.660837    1.200043    0.001299
      3          6           0       -3.043310    1.201497   -0.065169
      4          6           0       -3.737458    0.000707   -0.098755
      5          6           0       -3.042483   -1.207326   -0.065554
      6          6           0       -1.646900   -1.208794    0.001544
      7          9           0        0.388753    0.003016    0.099631
      8          1           0       -1.119040    2.137284    0.027514
      9          1           0       -3.582998    2.139604   -0.090951
     10          1           0       -4.819168    0.001845   -0.150763
     11          1           0       -3.584091   -2.144242   -0.091760
     12          1           0       -1.091500   -2.137049    0.028084
     13          8           0        3.241902   -0.004971    0.236807
     14          6           0        4.444171   -0.009758    0.294611
     15          1           0        4.948368   -0.011369    1.273683
     16          1           0        5.039987   -0.011033   -0.631600
     17          1           0        0.647602    0.002285    2.135095
     18         17           0        0.363485    0.002296    3.390445
     19          1           0        0.903735    2.221199   -1.157510
     20         17           0        0.712384    3.317467   -1.799979
     21          1           0        0.899116   -2.215665   -1.158515
     22         17           0        0.705484   -3.311241   -1.801480
 ---------------------------------------------------------------------

 The electronic state is 1-A.
 Alpha  occ. eigenvalues -- -102.68239-102.68231-102.67520 -25.28111 -19.64773
 Alpha  occ. eigenvalues --  -10.64529 -10.64140 -10.56462 -10.56337 -10.56247
 Alpha  occ. eigenvalues --  -10.56125 -10.55557  -9.82558  -9.82549  -9.81841
 Alpha  occ. eigenvalues --   -7.55055  -7.55046  -7.54414  -7.54410  -7.54406
 Alpha  occ. eigenvalues --   -7.54402  -7.54326  -7.53707  -7.53706  -1.39556
 Alpha  occ. eigenvalues --   -1.19487  -0.98510  -0.94520  -0.94503  -0.93790
 Alpha  occ. eigenvalues --   -0.86815  -0.86379  -0.72637  -0.72410  -0.71796
 Alpha  occ. eigenvalues --   -0.64604  -0.60155  -0.59380  -0.58780  -0.58569
 Alpha  occ. eigenvalues --   -0.54087  -0.53902  -0.53818  -0.52766  -0.52275
 Alpha  occ. eigenvalues --   -0.51058  -0.50206  -0.47981  -0.45331  -0.44394
 Alpha  occ. eigenvalues --   -0.42444  -0.40165  -0.40155  -0.40082  -0.39898
 Alpha  occ. eigenvalues --   -0.39569  -0.39565  -0.35069  -0.32843  -0.32022
 Alpha virt. eigenvalues --   -0.01094  -0.00647  -0.00006   0.00529   0.00824
 Alpha virt. eigenvalues --    0.00969   0.01598   0.01845   0.02709   0.03253
 Alpha virt. eigenvalues --    0.04036   0.04779   0.05094   0.06346   0.06440

 Mulliken charges:
               1
     1  C   -0.071680
     2  C    0.183137
     3  C   -0.368369
     4  C   -0.242345
     5  C   -0.365048
     6  C    0.177887
     7  F   -0.140207
     8  H    0.004294
     9  H    0.248998
    10  H    0.211000
    11  H    0.249935
    12  H   -0.000811
    13  O   -0.272787
    14  C    0.028072
    15  H    0.130423
    16  H    0.134971
    17  H    0.135242
    18  Cl  -0.114068
    19  H    0.137673
    20  Cl  -0.102151
    21  H    0.136907
    22  Cl  -0.101072
 Sum of Mulliken charges =  -0.00000

 Dipole moment (field-independent basis, Debye):
    X=              1.1891    Y=             -0.0014    Z=             -0.2446  Tot=              1.2140
 Quadrupole moment (field-independent basis, Debye-Ang):
   XX=            -60.6870   YY=            -99.0287   ZZ=           -108.0281
   XY=             -0.1602   XZ=              2.2318   YZ=              0.0042

  Exact polarizability:   0.000   0.000   0.000   0.000   0.000   0.000
 Approx polarizability: 162.699  -0.272 154.065   2.108   0.011 112.876

 Normal termination of Gaussian 16 at Tue Apr  2 12:22:07 2024.
