 Gaussian 16, Revision B.01,
 Gaussian 16:  ES64L-G16RevB.01 20-Dec-2017

 ----------------------------------------------------------------
 # m062x 6-311++G(d,p) opt=(maxstep=5,notrust,maxcyc=50,z-matrix)
 ----------------------------------------------------------------

 ----
 test
 ----
 Symbolic Z-matrix:
 Charge =  0 Multiplicity = 1

 SCF Done:  E(RM062X) =  -906.440021327     A.U. after   14 cycles
 SCF Done:  E(RM062X) =  -906.479239043     A.U. after   11 cycles
 SCF Done:  E(RM062X) =  -906.545778893     A.U. after   11 cycles
 SCF Done:  E(RM062X) =  -906.598608356     A.U. after   11 cycles
 SCF Done:  E(RM062X) =  -906.639882092     A.U. after   11 cycles
 SCF Done:  E(RM062X) =  -906.671350252     A.U. after   12 cycles
 SCF Done:  E(RM062X) =  -906.694461402     A.U. after   12 cycles
 SCF Done:  E(RM062X) =  -906.710424265     A.U. after   12 cycles
 SCF Done:  E(RM062X) =  -906.720283217     A.U. after   13 cycles
 SCF Done:  E(RM062X) =  -906.724817594     A.U. after   12 cycles
 SCF Done:  E(RM062X) =  -906.729178754     A.U. after   10 cycles
 SCF Done:  E(RM062X) =  -906.729179977     A.U. after    8 cycles
 SCF Done:  E(RM062X) =  -906.729178722     A.U. after   10 cycles
 SCF Done:  E(RM062X) =  -906.729179993     A.U. after    6 cycles
 SCF Done:  E(RM062X) =  -906.729179987     A.U. after    7 cycles
 SCF Done:  E(RM062X) =  -906.729180008     A.U. after    7 cycles
 SCF Done:  E(RM062X) =  -906.729180003     A.U. after    7 cycles
 SCF Done:  E(RM062X) =  -906.729180019     A.U. after    7 cycles
 SCF Done:  E(RM062X) =  -906.729179430     A.U. after   10 cycles
 SCF Done:  E(RM062X) =  -906.729180007     A.U. after   10 cycles
 Optimization completed.
    -- Stationary point found.

                         Standard orientation:
 ---------------------------------------------------------------------
 Center     Atomic      Atomic             Coordinates (Angstroms)
 Number     Number       Type             X           Y           Z
 ---------------------------------------------------------------------
      1          6           0       -0.782851   -0.605763   -0.007139
      2          6           0       -1.468221   -0.526240   -1.201472
      3          6           0       -2.843541   -0.374379   -1.201120
      4          6           0       -3.533105   -0.302107    0.000463
      5          6           0       -2.840244   -0.382500    1.207848
      6          6           0       -1.451355   -0.535858    1.207493
      7          9           0        0.557364   -0.753747   -0.007483
      8          1           0       -0.929551   -0.582697   -2.140119
      9          1           0       -3.381577   -0.311951   -2.138707
     10          1           0       -4.609678   -0.183234    0.000738
     11          1           0       -3.378425   -0.326094    2.145642
     12          1           0       -0.896580   -0.600103    2.135424
     13          8           0        3.506697   -1.079423   -0.003059
     14          6           0        4.698520   -1.211033    0.000167
     15          1           0        5.351907   -0.321593    0.003957
     16          1           0        5.142149   -2.221695   -0.002161
     17          1           0        1.131524    1.209590   -0.001126
     18         17           0        1.048539    2.493186    0.002984
 ---------------------------------------------------------------------

 The electronic state is 1-A.
 Alpha  occ. eigenvalues -- -102.65826 -25.26251 -19.64456 -10.64008 -10.63561
 Alpha  occ. eigenvalues --  -10.55926 -10.55736 -10.55714 -10.55508 -10.55139
 Alpha  occ. eigenvalues --   -9.80146  -7.52635  -7.52008  -7.52007  -1.38197
 Alpha  occ. eigenvalues --   -1.19340  -0.97806  -0.92129  -0.86224  -0.85617
 Alpha  occ. eigenvalues --   -0.72558  -0.71728  -0.71012  -0.63791  -0.58664
 Alpha  occ. eigenvalues --   -0.58521  -0.58228  -0.57946  -0.53642  -0.52411
 Alpha  occ. eigenvalues --   -0.50717  -0.50596  -0.48978  -0.47683  -0.44465
 Alpha  occ. eigenvalues --   -0.43909  -0.41614  -0.37848  -0.37825  -0.34722
 Alpha  occ. eigenvalues --   -0.32258  -0.31107
 Alpha virt. eigenvalues --   -0.01039  -0.00169   0.00248   0.00636   0.01171
 Alpha virt. eigenvalues --    0.01588   0.01865   0.02500   0.03268   0.03665
 Alpha virt. eigenvalues --    0.04697   0.06511   0.06781   0.07342   0.07656

 Mulliken charges:
               1
     1  C   -0.916102
     2  C    0.464973
     3  C   -0.475620
     4  C   -0.003206
     5  C   -0.477789
     6  C    0.439630
     7  F   -0.113794
     8  H    0.231415
     9  H    0.205072
    10  H    0.198757
    11  H    0.205962
    12  H    0.232336
    13  O   -0.231441
    14  C    0.028385
    15  H    0.111742
    16  H    0.108901
    17  H    0.098535
    18  Cl  -0.107756
 Sum of Mulliken charges =  -0.00000

 Dipole moment (field-independent basis, Debye):
    X=              0.6936    Y=             -1.8198    Z=             -0.0056  Tot=              1.9475
 Quadrupole moment (field-independent basis, Debye-Ang):
   XX=            -39.7869   YY=            -72.9444   ZZ=            -59.9756
   XY=             -5.4786   XZ=              0.0961   YZ=             -0.0452

 Normal termination of Gaussian 16 at Tue Apr  9 12:35:30 2024.
