 Gaussian 16, Revision B.01,
 Gaussian 16:  ES64L-G16RevB.01 20-Dec-2017

 ----------------------------------------------------------------------
 # m062x 6-311++G(d,p) opt=(maxstep=5,notrust,z-matrix,loose,maxcyc=50)
  scrf=(solvent=water)
 ----------------------------------------------------------------------

 ----
 test
 ----
 Symbolic Z-matrix:
 Charge =  0 Multiplicity = 1

 SCF Done:  E(RM062X) =  -8170.15319713     A.U. after   15 cycles
 SCF Done:  E(RM062X) =  -8170.17026197     A.U. after   10 cycles
 SCF Done:  E(RM062X) =  -8170.19874213     A.U. after   13 cycles
 SCF Done:  E(RM062X) =  -8170.22017943     A.U. after   13 cycles
 SCF Done:  E(RM062X) =  -8170.23511192     A.U. after   13 cycles
 SCF Done:  E(RM062X) =  -8170.24403664     A.U. after   13 cycles
 SCF Done:  E(RM062X) =  -8170.24742920     A.U. after   13 cycles
 SCF Done:  E(RM062X) =  -8170.24799970     A.U. after   10 cycles
 SCF Done:  E(RM062X) =  -8170.24850656     A.U. after   11 cycles
 SCF Done:  E(RM062X) =  -8170.24883590     A.U. after   10 cycles
 SCF Done:  E(RM062X) =  -8170.25115285     A.U. after    9 cycles
 SCF Done:  E(RM062X) =  -8170.25116982     A.U. after    9 cycles
 SCF Done:  E(RM062X) =  -8170.25118505     A.U. after    9 cycles
 SCF Done:  E(RM062X) =  -8170.25119021     A.U. after    9 cycles
 SCF Done:  E(RM062X) =  -8170.25118921     A.U. after    8 cycles
 SCF Done:  E(RM062X) =  -8170.25120778     A.U. after    9 cycles
 SCF Done:  E(RM062X) =  -8170.25121668     A.U. after    9 cycles
 SCF Done:  E(RM062X) =  -8170.25123111     A.U. after    8 cycles
 SCF Done:  E(RM062X) =  -8170.25123719     A.U. after    8 cycles
 SCF Done:  E(RM062X) =  -8170.25125053     A.U. after    7 cycles
 Optimization completed.
    -- Stationary point found.

                         Standard orientation:
 ---------------------------------------------------------------------
 Center     Atomic      Atomic             Coordinates (Angstroms)
 Number     Number       Type             X           Y           Z
 ---------------------------------------------------------------------
      1          6           0       -0.016388    0.388960    1.136449
      2          6           0       -1.214700    0.509312    1.811202
      3          6           0       -1.220668    0.794037    3.165558
      4          6           0       -0.021472    0.958631    3.845620
      5          6           0        1.188932    0.837065    3.164059
      6          6           0        1.194963    0.549356    1.795514
      7          9           0       -0.010535    0.109734   -0.191750
      8          1           0       -2.150521    0.380867    1.280499
      9          1           0       -2.160493    0.888428    3.694760
     10          1           0       -0.026142    1.181437    4.905444
     11          1           0        2.124036    0.965411    3.694355
     12          1           0        2.125188    0.451378    1.250073
     13          8           0        0.009255   -0.562268   -3.388753
     14          6           0        0.018040   -0.810081   -4.567837
     15          1           0        0.004515    0.009326   -5.302498
     16          1           0        0.038065   -1.855864   -4.910221
     17          1           0       -0.045768    2.081082   -0.983348
     18         35           0       -0.071542    3.505518   -1.029983
     19          1           0       -2.397546   -1.398814   -0.387391
     20         35           0       -3.600032   -2.055717   -0.002018
     21          1           0        2.460164   -1.329071   -0.386900
     22         35           0        3.685204   -1.942010   -0.000068
 ---------------------------------------------------------------------

 The electronic state is 1-A.
 Alpha  occ. eigenvalues -- -485.34592-485.34586-485.34239 -63.33813 -63.33808
 Alpha  occ. eigenvalues --  -63.33464 -57.16544 -57.16539 -57.16309 -57.16308
 Alpha  occ. eigenvalues --  -57.16304 -57.16303 -57.16189 -57.15963 -57.15963
 Alpha  occ. eigenvalues --  -25.27671 -19.64606 -10.64387 -10.63913 -10.56336
 Alpha  occ. eigenvalues --  -10.56229 -10.56111 -10.56007 -10.55429  -9.02525
 Alpha  occ. eigenvalues --   -9.02519  -9.02177  -6.85286  -6.85280  -6.84916
 Alpha  occ. eigenvalues --   -6.84318  -6.84314  -6.84312  -6.84308  -6.83982
 Alpha  occ. eigenvalues --   -6.83981  -2.88464  -2.88459  -2.88096  -2.88086
 Alpha  occ. eigenvalues --   -2.88082  -2.88080  -2.88076  -2.87728  -2.87727
 Alpha  occ. eigenvalues --   -2.87242  -2.87241  -2.87237  -2.87237  -2.86917
 Alpha  occ. eigenvalues --   -2.86917  -1.39300  -1.19276  -0.98357  -0.88500
 Alpha  occ. eigenvalues --   -0.88485  -0.88145  -0.86662  -0.86197  -0.72282
 Alpha  occ. eigenvalues --   -0.72212  -0.71695  -0.64416  -0.59537  -0.59057
 Alpha  occ. eigenvalues --   -0.58479  -0.58315  -0.53975  -0.52773  -0.51421
 Alpha  occ. eigenvalues --   -0.50547  -0.50209  -0.49869  -0.49734  -0.47807
 Alpha  occ. eigenvalues --   -0.45185  -0.44164  -0.42039  -0.37015  -0.37008
 Alpha  occ. eigenvalues --   -0.36996  -0.36961  -0.36794  -0.36758  -0.34905
 Alpha  occ. eigenvalues --   -0.32776  -0.31850
 Alpha virt. eigenvalues --   -0.00863  -0.00820  -0.00002   0.00589   0.00642
 Alpha virt. eigenvalues --    0.00845   0.01418   0.01698   0.02408   0.02886
 Alpha virt. eigenvalues --    0.03278   0.03642   0.03957   0.04300   0.05273

 Mulliken charges:
               1
     1  C   -0.106526
     2  C    0.155760
     3  C   -0.378075
     4  C   -0.303910
     5  C   -0.375865
     6  C    0.139227
     7  F   -0.121878
     8  H    0.074483
     9  H    0.254677
    10  H    0.220142
    11  H    0.255363
    12  H    0.074531
    13  O   -0.293447
    14  C    0.033179
    15  H    0.135032
    16  H    0.138263
    17  H    0.170660
    18  Br  -0.138180
    19  H    0.174838
    20  Br  -0.141333
    21  H    0.173739
    22  Br  -0.140682
 Sum of Mulliken charges =  -0.00000

 Dipole moment (field-independent basis, Debye):
    X=              0.0070    Y=             -0.5211    Z=             -1.2018  Tot=              1.3099
 Quadrupole moment (field-independent basis, Debye-Ang):
   XX=           -114.6925   YY=           -121.8792   ZZ=            -77.7964
   XY=              0.1228   XZ=             -0.3419   YZ=              9.4848

 Normal termination of Gaussian 16 at Tue Apr  9 13:40:00 2024.
