 Gaussian 16, Revision B.01,
 Gaussian 16:  ES64L-G16RevB.01 20-Dec-2017

 ------------------------------------------------------------------
 # m062x 6-311++G(d,p) opt=(z-matrix,recalc=5) scrf=(solvent=water)
 ------------------------------------------------------------------

 ----
 test
 ----
 Symbolic Z-matrix:
 Charge =  0 Multiplicity = 1

 SCF Done:  E(RM062X) =  -3020.24667769     A.U. after   14 cycles
 SCF Done:  E(RM062X) =  -3020.50294029     A.U. after   13 cycles
 SCF Done:  E(RM062X) =  -3020.68845388     A.U. after   14 cycles
 SCF Done:  E(RM062X) =  -3020.70091654     A.U. after   12 cycles
 SCF Done:  E(RM062X) =  -3020.69992200     A.U. after   13 cycles
 SCF Done:  E(RM062X) =  -3020.70797689     A.U. after   12 cycles
 SCF Done:  E(RM062X) =  -3020.70995509     A.U. after   13 cycles
 SCF Done:  E(RM062X) =  -3020.71003917     A.U. after   11 cycles
 SCF Done:  E(RM062X) =  -3020.70990474     A.U. after   11 cycles
 SCF Done:  E(RM062X) =  -3020.71005247     A.U. after    8 cycles
 SCF Done:  E(RM062X) =  -3020.70999271     A.U. after   10 cycles
 SCF Done:  E(RM062X) =  -3020.71005681     A.U. after    7 cycles
 SCF Done:  E(RM062X) =  -3020.71005688     A.U. after    7 cycles
 Optimization completed.
    -- Stationary point found.

                         Standard orientation:
 ---------------------------------------------------------------------
 Center     Atomic      Atomic             Coordinates (Angstroms)
 Number     Number       Type             X           Y           Z
 ---------------------------------------------------------------------
      1          6           0       -1.144059   -1.042185   -0.007655
      2          6           0       -1.823553   -0.922498   -1.201920
      3          6           0       -3.187550   -0.688649   -1.201541
      4          6           0       -3.871781   -0.574554    0.000690
      5          6           0       -3.184177   -0.695669    1.209207
      6          6           0       -1.805242   -0.932079    1.208823
      7          9           0        0.189836   -1.270873   -0.008026
      8          1           0       -1.289180   -1.011605   -2.140844
      9          1           0       -3.720971   -0.594692   -2.139070
     10          1           0       -4.939264   -0.391540    0.000987
     11          1           0       -3.717895   -0.606672    2.146978
     12          1           0       -1.253421   -1.029163    2.135966
     13          8           0        3.768517   -1.884434   -0.002685
     14          6           0        4.956013   -2.088033    0.000620
     15          1           0        5.659425   -1.241629    0.003865
     16          1           0        5.337321   -3.120418   -0.001155
     17          1           0        0.907385    0.730025   -0.002615
     18         35           0        0.900629    2.155458    0.001150
 ---------------------------------------------------------------------

 The electronic state is 1-A.
 Alpha  occ. eigenvalues -- -485.34216 -63.33441 -57.16166 -57.15941 -57.15940
 Alpha  occ. eigenvalues --  -25.27267 -19.64638 -10.64101 -10.63944 -10.56117
 Alpha  occ. eigenvalues --  -10.56042 -10.55872 -10.55790 -10.55277  -9.02154
 Alpha  occ. eigenvalues --   -6.84894  -6.83959  -6.83957  -2.88074  -2.87706
 Alpha  occ. eigenvalues --   -2.87703  -2.86894  -2.86894  -1.39038  -1.19315
 Alpha  occ. eigenvalues --   -0.98133  -0.88126  -0.86448  -0.85968  -0.72295
 Alpha  occ. eigenvalues --   -0.71952  -0.71498  -0.64192  -0.59236  -0.58744
 Alpha  occ. eigenvalues --   -0.58342  -0.58147  -0.54050  -0.52482  -0.50716
 Alpha  occ. eigenvalues --   -0.49719  -0.49516  -0.47844  -0.44961  -0.43970
 Alpha  occ. eigenvalues --   -0.41755  -0.36772  -0.36744  -0.34943  -0.32619
 Alpha  occ. eigenvalues --   -0.31624
 Alpha virt. eigenvalues --   -0.00781  -0.00292   0.00286   0.00746   0.01191
 Alpha virt. eigenvalues --    0.01431   0.01813   0.02388   0.03335   0.03402
 Alpha virt. eigenvalues --    0.03858   0.05324   0.05775   0.06355   0.06527

 Mulliken charges:
               1
     1  C   -0.965508
     2  C    0.488389
     3  C   -0.497809
     4  C   -0.075742
     5  C   -0.501351
     6  C    0.456478
     7  F   -0.146104
     8  H    0.262050
     9  H    0.238701
    10  H    0.228256
    11  H    0.239346
    12  H    0.263246
    13  O   -0.304453
    14  C    0.038700
    15  H    0.137762
    16  H    0.136216
    17  H    0.126474
    18  Br  -0.124651
 Sum of Mulliken charges =  -0.00000

 Dipole moment (field-independent basis, Debye):
    X=              0.6790    Y=             -1.7117    Z=             -0.0109  Tot=              1.8415
 Quadrupole moment (field-independent basis, Debye-Ang):
   XX=            -36.1062   YY=            -75.0762   ZZ=            -64.9802
   XY=             -8.7026   XZ=              0.1457   YZ=             -0.0419

  Exact polarizability:   0.000   0.000   0.000   0.000   0.000   0.000
 Approx polarizability: 143.602  -8.160  95.079   0.251  -0.145 126.521

 Normal termination of Gaussian 16 at Mon Apr  1 15:07:46 2024.
