 Gaussian 16, Revision B.01,
 Gaussian 16:  ES64L-G16RevB.01 20-Dec-2017

 ------------------------------------------------------------------
 # m062x 6-311++G(d,p) opt=(recalc=5,z-matrix) scrf=(solvent=water)
 ------------------------------------------------------------------

 ----
 test
 ----
 Symbolic Z-matrix:
 Charge =  0 Multiplicity = 1

 SCF Done:  E(RM062X) =  -5594.65440738     A.U. after   15 cycles
 SCF Done:  E(RM062X) =  -5595.04504228     A.U. after   14 cycles
 SCF Done:  E(RM062X) =  -5595.40098658     A.U. after   14 cycles
 SCF Done:  E(RM062X) =  -5595.43438048     A.U. after   16 cycles
 SCF Done:  E(RM062X) =  -5595.47727443     A.U. after   13 cycles
 SCF Done:  E(RM062X) =  -5595.47895616     A.U. after   12 cycles
 SCF Done:  E(RM062X) =  -5595.48242431     A.U. after   12 cycles
 SCF Done:  E(RM062X) =  -5595.48252457     A.U. after   11 cycles
 SCF Done:  E(RM062X) =  -5595.48256436     A.U. after   10 cycles
 SCF Done:  E(RM062X) =  -5595.48260987     A.U. after   11 cycles
 SCF Done:  E(RM062X) =  -5595.48257002     A.U. after   11 cycles
 SCF Done:  E(RM062X) =  -5595.48249561     A.U. after   10 cycles
 SCF Done:  E(RM062X) =  -5595.48262512     A.U. after    9 cycles
 SCF Done:  E(RM062X) =  -5595.48264457     A.U. after   10 cycles
 SCF Done:  E(RM062X) =  -5595.48259638     A.U. after    9 cycles
 SCF Done:  E(RM062X) =  -5595.48263636     A.U. after    9 cycles
 SCF Done:  E(RM062X) =  -5595.48264457     A.U. after    1 cycles
 SCF Done:  E(RM062X) =  -5595.48253993     A.U. after    8 cycles
 SCF Done:  E(RM062X) =  -5595.48264469     A.U. after    6 cycles
 Optimization completed.
    -- Stationary point found.

                         Standard orientation:
 ---------------------------------------------------------------------
 Center     Atomic      Atomic             Coordinates (Angstroms)
 Number     Number       Type             X           Y           Z
 ---------------------------------------------------------------------
      1          6           0       -0.003700   -1.090881   -0.000000
      2          6           0       -1.197060   -1.779868   -0.000000
      3          6           0       -1.197060   -3.162908   -0.000000
      4          6           0        0.004584   -3.856678   -0.000000
      5          6           0        1.213538   -3.158688   -0.000000
      6          6           0        1.213538   -1.759024    0.000000
      7          9           0       -0.003700    0.268578    0.000000
      8          1           0       -2.135935   -1.237808   -0.000000
      9          1           0       -2.134662   -3.704233   -0.000000
     10          1           0        0.004584   -4.939690   -0.000000
     11          1           0        2.151078   -3.699978    0.000000
     12          1           0        2.139824   -1.197214    0.000000
     13          8           0        0.002561    3.855969    0.000000
     14          6           0        0.006189    5.060800    0.000000
     15          1           0        0.007074    5.611071    0.953099
     16          1           0        0.007074    5.611071   -0.953099
     17          1           0       -0.003700    0.640259    2.107911
     18         35           0       -0.003700    0.392783    3.511420
     19          1           0       -0.003700    0.640259   -2.107911
     20         35           0       -0.003700    0.392783   -3.511420
 ---------------------------------------------------------------------

 The electronic state is 1-A'.
 Alpha  occ. eigenvalues -- -485.34253-485.34253 -63.33478 -63.33478 -57.16203
 Alpha  occ. eigenvalues --  -57.16203 -57.15977 -57.15977 -57.15976 -57.15976
 Alpha  occ. eigenvalues --  -25.28140 -19.64645 -10.64403 -10.63948 -10.56379
 Alpha  occ. eigenvalues --  -10.56251 -10.56103 -10.55981 -10.55477  -9.02191
 Alpha  occ. eigenvalues --   -9.02191  -6.84933  -6.84933  -6.83995  -6.83995
 Alpha  occ. eigenvalues --   -6.83993  -6.83993  -2.88113  -2.88112  -2.87744
 Alpha  occ. eigenvalues --   -2.87744  -2.87741  -2.87741  -2.86928  -2.86928
 Alpha  occ. eigenvalues --   -2.86928  -2.86928  -1.39734  -1.19319  -0.98397
 Alpha  occ. eigenvalues --   -0.88180  -0.88147  -0.86664  -0.86270  -0.72303
 Alpha  occ. eigenvalues --   -0.72201  -0.71879  -0.64538  -0.60463  -0.59199
 Alpha  occ. eigenvalues --   -0.58411  -0.58346  -0.54053  -0.52673  -0.50974
 Alpha  occ. eigenvalues --   -0.50268  -0.49953  -0.49421  -0.47847  -0.45276
 Alpha  occ. eigenvalues --   -0.44159  -0.41999  -0.36804  -0.36796  -0.36782
 Alpha  occ. eigenvalues --   -0.36758  -0.34944  -0.32790  -0.31947
 Alpha virt. eigenvalues --   -0.00787  -0.00479   0.00096   0.00667   0.00750
 Alpha virt. eigenvalues --    0.01339   0.01660   0.01676   0.02748   0.03312
 Alpha virt. eigenvalues --    0.03315   0.04158   0.04969   0.05613   0.05675

 Mulliken charges:
               1
     1  C   -0.605529
     2  C    0.035685
     3  C   -0.123625
     4  C   -0.363677
     5  C   -0.143115
     6  C    0.026908
     7  F   -0.090550
     8  H    0.234193
     9  H    0.251779
    10  H    0.212157
    11  H    0.252435
    12  H    0.235979
    13  O   -0.302676
    14  C    0.041343
    15  H    0.136316
    16  H    0.136316
    17  H    0.180000
    18  Br  -0.146969
    19  H    0.180000
    20  Br  -0.146969
 Sum of Mulliken charges =  -0.00000

 Dipole moment (field-independent basis, Debye):
    X=             -0.0071    Y=              0.9712    Z=              0.0000  Tot=              0.9713
 Quadrupole moment (field-independent basis, Debye-Ang):
   XX=            -84.9412   YY=            -53.7162   ZZ=           -105.8825
   XY=              0.1711   XZ=             -0.0000   YZ=              0.0000

  Exact polarizability:   0.000   0.000   0.000   0.000   0.000   0.000
 Approx polarizability: 144.970   0.296 163.938  -0.000   0.000 122.836

 Normal termination of Gaussian 16 at Tue Apr  2 14:27:40 2024.
