 Gaussian 16, Revision B.01,
 Gaussian 16:  ES64L-G16RevB.01 20-Dec-2017

 ----------------------------------------------------------------------
 # m062x 6-311++G(d,p) opt=(z-matrix,recalc=5,loose) scrf=(solvent=dich
 loroethane)
 ----------------------------------------------------------------------

 ----
 test
 ----
 Symbolic Z-matrix:
 Charge =  0 Multiplicity = 1

 SCF Done:  E(RM062X) =  -1827.66482446     A.U. after   14 cycles
 SCF Done:  E(RM062X) =  -1827.96868396     A.U. after   13 cycles
 SCF Done:  E(RM062X) =  -1828.03431393     A.U. after   13 cycles
 SCF Done:  E(RM062X) =  -1828.23954298     A.U. after   13 cycles
 SCF Done:  E(RM062X) =  -1828.28225206     A.U. after   13 cycles
 SCF Done:  E(RM062X) =  -1828.31617967     A.U. after   13 cycles
 SCF Done:  E(RM062X) =  -1828.32555723     A.U. after   12 cycles
 SCF Done:  E(RM062X) =  -1828.33304947     A.U. after   12 cycles
 SCF Done:  E(RM062X) =  -1828.33501767     A.U. after   12 cycles
 SCF Done:  E(RM062X) =  -1828.33737269     A.U. after   12 cycles
 SCF Done:  E(RM062X) =  -1828.33927541     A.U. after   11 cycles
 SCF Done:  E(RM062X) =  -1828.33866274     A.U. after   12 cycles
 SCF Done:  E(RM062X) =  -1828.33869641     A.U. after   11 cycles
 SCF Done:  E(RM062X) =  -1828.33946296     A.U. after    9 cycles
 SCF Done:  E(RM062X) =  -1828.33968959     A.U. after   10 cycles
 SCF Done:  E(RM062X) =  -1828.33973403     A.U. after    9 cycles
 SCF Done:  E(RM062X) =  -1828.33990656     A.U. after   11 cycles
 SCF Done:  E(RM062X) =  -1828.33991484     A.U. after    7 cycles
 SCF Done:  E(RM062X) =  -1828.33999483     A.U. after   11 cycles
 SCF Done:  E(RM062X) =  -1828.34001756     A.U. after    9 cycles
 Optimization completed.
    -- Stationary point found.

                         Standard orientation:
 ---------------------------------------------------------------------
 Center     Atomic      Atomic             Coordinates (Angstroms)
 Number     Number       Type             X           Y           Z
 ---------------------------------------------------------------------
      1          6           0       -0.977226    0.004420    0.035509
      2          6           0       -1.665163    1.200132    0.002328
      3          6           0       -3.047815    1.201529   -0.064800
      4          6           0       -3.741985    0.000557   -0.098723
      5          6           0       -3.046885   -1.207604   -0.065197
      6          6           0       -1.651115   -1.209014    0.002569
      7          9           0        0.384173    0.003045    0.101606
      8          1           0       -1.123404    2.137421    0.028803
      9          1           0       -3.587540    2.139632   -0.090833
     10          1           0       -4.823675    0.001649   -0.151240
     11          1           0       -3.588454   -2.144564   -0.091662
     12          1           0       -1.095669   -2.137252    0.029366
     13          8           0        3.265608   -0.004901    0.241500
     14          6           0        4.468510   -0.009645    0.299901
     15          1           0        4.972101   -0.011240    1.278927
     16          1           0        5.064573   -0.010891   -0.625735
     17          1           0        0.641886    0.002316    2.135783
     18         17           0        0.357103    0.002310    3.391331
     19          1           0        0.902051    2.231577   -1.161131
     20         17           0        0.710893    3.328204   -1.803897
     21          1           0        0.897598   -2.225931   -1.162164
     22         17           0        0.704250   -3.321876   -1.805439
 ---------------------------------------------------------------------

 The electronic state is 1-A.
 Alpha  occ. eigenvalues -- -102.68300-102.68292-102.67709 -25.28083 -19.64646
 Alpha  occ. eigenvalues --  -10.64531 -10.63983 -10.56451 -10.56317 -10.56235
 Alpha  occ. eigenvalues --  -10.56104 -10.55528  -9.82620  -9.82611  -9.82031
 Alpha  occ. eigenvalues --   -7.55115  -7.55106  -7.54514  -7.54477  -7.54473
 Alpha  occ. eigenvalues --   -7.54468  -7.54465  -7.53898  -7.53897  -1.39538
 Alpha  occ. eigenvalues --   -1.19336  -0.98496  -0.94565  -0.94549  -0.93971
 Alpha  occ. eigenvalues --   -0.86796  -0.86357  -0.72471  -0.72377  -0.71761
 Alpha  occ. eigenvalues --   -0.64575  -0.60151  -0.59344  -0.58732  -0.58400
 Alpha  occ. eigenvalues --   -0.53976  -0.53931  -0.53840  -0.52755  -0.52399
 Alpha  occ. eigenvalues --   -0.51027  -0.50170  -0.47850  -0.45341  -0.44348
 Alpha  occ. eigenvalues --   -0.42408  -0.40240  -0.40231  -0.40158  -0.39969
 Alpha  occ. eigenvalues --   -0.39775  -0.39764  -0.34947  -0.32856  -0.32026
 Alpha virt. eigenvalues --   -0.00922  -0.00651  -0.00013   0.00601   0.00808
 Alpha virt. eigenvalues --    0.00962   0.01641   0.01897   0.02744   0.03295
 Alpha virt. eigenvalues --    0.04069   0.04743   0.05044   0.06344   0.06456

 Mulliken charges:
               1
     1  C   -0.071223
     2  C    0.174281
     3  C   -0.368752
     4  C   -0.249091
     5  C   -0.365638
     6  C    0.168812
     7  F   -0.138156
     8  H    0.010976
     9  H    0.253269
    10  H    0.215699
    11  H    0.254171
    12  H    0.005825
    13  O   -0.280560
    14  C    0.029885
    15  H    0.133001
    16  H    0.137743
    17  H    0.137388
    18  Cl  -0.117680
    19  H    0.142050
    20  Cl  -0.107189
    21  H    0.141282
    22  Cl  -0.106092
 Sum of Mulliken charges =  -0.00000

 Dipole moment (field-independent basis, Debye):
    X=              1.2394    Y=              0.0001    Z=             -0.2391  Tot=              1.2623
 Quadrupole moment (field-independent basis, Debye-Ang):
   XX=            -59.8909   YY=            -99.1946   ZZ=           -108.2900
   XY=             -0.1665   XZ=              2.3366   YZ=              0.0042

  Exact polarizability: 166.642  -0.245 154.853   2.569   0.034 116.589
 Approx polarizability: 162.530  -0.272 153.930   2.159   0.012 112.843

 Normal termination of Gaussian 16 at Mon Jan  6 21:34:22 2025.
