 Gaussian 16, Revision B.01,
 Gaussian 16:  ES64L-G16RevB.01 20-Dec-2017

 ----------------------------------
 # opt=z-matrix 6-311++g(d,p) m062x
 ----------------------------------

 ----
 test
 ----
 Symbolic Z-matrix:
 Charge =  0 Multiplicity = 1

 SCF Done:  E(RM062X) =  -654.980312479     A.U. after   15 cycles
 SCF Done:  E(RM062X) =  -655.067921206     A.U. after   13 cycles
 SCF Done:  E(RM062X) =  -655.102944341     A.U. after   13 cycles
 SCF Done:  E(RM062X) =  -655.103067567     A.U. after   10 cycles
 SCF Done:  E(RM062X) =  -655.103085904     A.U. after    9 cycles
 SCF Done:  E(RM062X) =  -655.103094045     A.U. after    8 cycles
 SCF Done:  E(RM062X) =  -655.103064258     A.U. after   13 cycles
 SCF Done:  E(RM062X) =  -655.103006014     A.U. after   12 cycles
 SCF Done:  E(RM062X) =  -655.103137807     A.U. after   12 cycles
 SCF Done:  E(RM062X) =  -655.103139406     A.U. after    8 cycles
 SCF Done:  E(RM062X) =  -655.102624959     A.U. after   11 cycles
 SCF Done:  E(RM062X) =  -655.103141579     A.U. after   10 cycles
 Optimization completed.
    -- Stationary point found.

                         Standard orientation:
 ---------------------------------------------------------------------
 Center     Atomic      Atomic             Coordinates (Angstroms)
 Number     Number       Type             X           Y           Z
 ---------------------------------------------------------------------
      1          6           0       -1.410046    0.783197   -0.057514
      2          6           0       -2.092530    0.653818    1.144409
      3          6           0       -3.380966    0.131923    1.159462
      4          6           0       -3.984674   -0.259588   -0.026642
      5          6           0       -3.302614   -0.130290   -1.227818
      6          6           0       -2.027715    0.424617   -1.248070
      7          9           0       -0.164131    1.287869   -0.072071
      8          1           0       -1.620906    0.959672    2.071009
      9          1           0       -3.913254    0.031017    2.096875
     10          1           0       -4.988509   -0.666203   -0.014914
     11          1           0       -3.773769   -0.435839   -2.153496
     12          1           0       -1.481733    0.491835   -2.181894
     13          8           0        2.707357    2.450998   -0.105620
     14          6           0        3.818874    2.900975   -0.120685
     15          1           0        4.687843    2.228449   -0.018518
     16          1           0        3.972706    3.987850   -0.235238
     17          1           0        0.949600   -0.481898    0.158865
     18          7           0        1.483186   -1.329890    0.267746
     19          6           0        1.874847   -2.020116   -0.834972
     20          8           0        2.518084   -3.046855   -0.781989
     21          6           0        1.849751   -1.841905    1.573281
     22          1           0        2.420277   -2.760691    1.478803
     23          1           0        2.459751   -1.115230    2.115939
     24          1           0        0.958379   -2.053008    2.169750
     25          1           0        1.551385   -1.556477   -1.780611
 ---------------------------------------------------------------------

 The electronic state is 1-A.
 Alpha  occ. eigenvalues --  -25.26915 -19.64642 -19.57936 -14.76199 -10.64357
 Alpha  occ. eigenvalues --  -10.64192 -10.62846 -10.56408 -10.56390 -10.56300
 Alpha  occ. eigenvalues --  -10.56287 -10.55746 -10.55646  -1.38946  -1.19518
 Alpha  occ. eigenvalues --   -1.15233  -1.01968  -0.98419  -0.86810  -0.86272
 Alpha  occ. eigenvalues --   -0.79715  -0.72730  -0.72296  -0.71693  -0.66835
 Alpha  occ. eigenvalues --   -0.64423  -0.61861  -0.58921  -0.58778  -0.58620
 Alpha  occ. eigenvalues --   -0.58221  -0.53844  -0.53059  -0.52651  -0.51631
 Alpha  occ. eigenvalues --   -0.51103  -0.49624  -0.47880  -0.47821  -0.45158
 Alpha  occ. eigenvalues --   -0.44635  -0.44438  -0.44398  -0.42133  -0.34907
 Alpha  occ. eigenvalues --   -0.32907  -0.32525  -0.31828  -0.30719
 Alpha virt. eigenvalues --   -0.01247  -0.00789  -0.00117  -0.00052   0.00380
 Alpha virt. eigenvalues --    0.00908   0.01260   0.01724   0.02386   0.02822
 Alpha virt. eigenvalues --    0.03346   0.04097   0.04791   0.05390   0.05619

 Mulliken charges:
               1
     1  C   -0.629021
     2  C    0.236880
     3  C   -0.298385
     4  C   -0.175868
     5  C   -0.285558
     6  C    0.214341
     7  F   -0.095902
     8  H    0.229869
     9  H    0.216590
    10  H    0.197877
    11  H    0.219013
    12  H    0.218776
    13  O   -0.220790
    14  C    0.032888
    15  H    0.114548
    16  H    0.106786
    17  H    0.175977
    18  N   -0.121575
    19  C    0.096382
    20  O   -0.401672
    21  C   -0.469325
    22  H    0.201817
    23  H    0.171895
    24  H    0.160171
    25  H    0.104286
 Sum of Mulliken charges =  -0.00000

 Dipole moment (field-independent basis, Debye):
    X=             -1.6358    Y=              3.8554    Z=              1.2482  Tot=              4.3701
 Quadrupole moment (field-independent basis, Debye-Ang):
   XX=            -62.4546   YY=            -89.3706   ZZ=            -68.8257
   XY=             21.7915   XZ=              3.3950   YZ=             -4.0681

 Normal termination of Gaussian 16 at Wed Mar 20 11:27:01 2024.
