 Gaussian 16, Revision B.01,
 Gaussian 16:  ES64L-G16RevB.01 20-Dec-2017

 ----------------------------------
 # opt=z-matrix 6-311++g(d,p) m062x
 ----------------------------------

 ----
 test
 ----
 Symbolic Z-matrix:
 Charge =  0 Multiplicity = 1

 SCF Done:  E(RM062X) =  -864.131548662     A.U. after   15 cycles
 SCF Done:  E(RM062X) =  -864.229435103     A.U. after   13 cycles
 SCF Done:  E(RM062X) =  -864.279895577     A.U. after   13 cycles
 SCF Done:  E(RM062X) =  -864.280050733     A.U. after    9 cycles
 SCF Done:  E(RM062X) =  -864.280061692     A.U. after    9 cycles
 Optimization completed.
    -- Stationary point found.

                         Standard orientation:
 ---------------------------------------------------------------------
 Center     Atomic      Atomic             Coordinates (Angstroms)
 Number     Number       Type             X           Y           Z
 ---------------------------------------------------------------------
      1          6           0        0.000272    1.228267   -0.001073
      2          6           0       -0.100406    1.922618   -1.198335
      3          6           0       -0.101856    3.312683   -1.197628
      4          6           0       -0.002671    4.005706   -0.000212
      5          6           0        0.097958    3.311688    1.196476
      6          6           0        0.063561    1.921571    1.199354
      7          9           0        0.001683   -0.124153   -0.001761
      8          1           0       -0.177919    1.381014   -2.134126
      9          1           0       -0.180387    3.854292   -2.131519
     10          1           0       -0.003801    5.088584    0.000339
     11          1           0        0.175361    3.852517    2.130927
     12          1           0        0.178593    1.379738    2.131206
     13          8           0        0.004579   -2.900006   -0.003172
     14          6           0        0.006006   -4.100163   -0.001694
     15          1           0        0.958632   -4.650697   -0.081219
     16          1           0       -0.945430   -4.652762    0.077695
     17          1           0        2.080677   -0.489685   -0.175429
     18          7           0        3.069766   -0.663564   -0.256288
     19          6           0        3.823231   -0.779219    0.869101
     20          8           0        5.017086   -0.987984    0.849984
     21          6           0        3.721628   -0.795639   -1.544522
     22          1           0        4.784167   -0.979435   -1.419841
     23          1           0        3.294980   -1.627994   -2.109836
     24          1           0        3.599574    0.116251   -2.134565
     25          1           0        3.243382   -0.664792    1.799062
     26          1           0       -2.075905   -0.494085    0.171481
     27          7           0       -3.064334   -0.670110    0.255666
     28          6           0       -3.821401   -0.786914   -0.867156
     29          8           0       -5.014758   -0.998242   -0.844022
     30          6           0       -3.711468   -0.804103    1.546056
     31          1           0       -4.774034   -0.990119    1.424951
     32          1           0       -3.281100   -1.635779    2.109556
     33          1           0       -3.589335    0.107805    2.136056
     34          1           0       -3.245004   -0.670868   -1.799049
 ---------------------------------------------------------------------

 The electronic state is 1-A.
 Alpha  occ. eigenvalues --  -25.28942 -19.65525 -19.58613 -19.58595 -14.76923
 Alpha  occ. eigenvalues --  -14.76904 -10.65701 -10.65033 -10.63534 -10.63515
 Alpha  occ. eigenvalues --  -10.57616 -10.57614 -10.57474 -10.57469 -10.56744
 Alpha  occ. eigenvalues --  -10.56397 -10.56379  -1.40748  -1.20366  -1.15930
 Alpha  occ. eigenvalues --   -1.15911  -1.02668  -1.02646  -0.99658  -0.87993
 Alpha  occ. eigenvalues --   -0.87567  -0.80383  -0.80364  -0.73700  -0.73524
 Alpha  occ. eigenvalues --   -0.72950  -0.67747  -0.67397  -0.65771  -0.62870
 Alpha  occ. eigenvalues --   -0.62334  -0.60417  -0.59866  -0.59817  -0.59561
 Alpha  occ. eigenvalues --   -0.54819  -0.54114  -0.53348  -0.53287  -0.52306
 Alpha  occ. eigenvalues --   -0.52288  -0.52283  -0.51181  -0.48761  -0.48546
 Alpha  occ. eigenvalues --   -0.48463  -0.46429  -0.45619  -0.45315  -0.45216
 Alpha  occ. eigenvalues --   -0.45075  -0.45057  -0.43363  -0.35819  -0.34052
 Alpha  occ. eigenvalues --   -0.33243  -0.33190  -0.33139  -0.31482  -0.31375
 Alpha virt. eigenvalues --   -0.02082  -0.01634  -0.01219  -0.00700  -0.00691
 Alpha virt. eigenvalues --   -0.00338   0.00636   0.00758   0.01526   0.01701
 Alpha virt. eigenvalues --    0.02146   0.02567   0.03162   0.03937   0.03993

 Mulliken charges:
               1
     1  C   -0.704386
     2  C    0.159161
     3  C   -0.131270
     4  C   -0.449498
     5  C   -0.103866
     6  C    0.176185
     7  F   -0.046926
     8  H    0.240843
     9  H    0.232092
    10  H    0.193563
    11  H    0.233179
    12  H    0.235515
    13  O   -0.201821
    14  C    0.035346
    15  H    0.116493
    16  H    0.116340
    17  H    0.206869
    18  N   -0.133786
    19  C    0.097742
    20  O   -0.399160
    21  C   -0.461415
    22  H    0.203010
    23  H    0.170920
    24  H    0.159415
    25  H    0.107249
    26  H    0.200649
    27  N   -0.134775
    28  C    0.101922
    29  O   -0.399253
    30  C   -0.461432
    31  H    0.202867
    32  H    0.171366
    33  H    0.159574
    34  H    0.107287
 Sum of Mulliken charges =  -0.00000

 Dipole moment (field-independent basis, Debye):
    X=              0.0295    Y=              1.0569    Z=             -0.0136  Tot=              1.0574
 Quadrupole moment (field-independent basis, Debye-Ang):
   XX=           -165.4945   YY=            -76.0822   ZZ=            -91.7085
   XY=             -0.0716   XZ=            -15.8684   YZ=             -0.0178

 Normal termination of Gaussian 16 at Wed Mar 20 11:23:56 2024.
