 Gaussian 16, Revision B.01,
 Gaussian 16:  ES64L-G16RevB.01 20-Dec-2017

 ----------------------------------------------------------------------
 # opt=(maxcyc=50,recalc=5,z-matrix) 6-311++g(d,p) m062x scrf=(solvent=
 chloroform)
 ----------------------------------------------------------------------

 ----
 test
 ----
 Symbolic Z-matrix:
 Charge =  0 Multiplicity = 1

 SCF Done:  E(RM062X) =  -654.993568366     A.U. after   14 cycles
 SCF Done:  E(RM062X) =  -655.080461134     A.U. after   13 cycles
 SCF Done:  E(RM062X) =  -655.115126584     A.U. after   13 cycles
 SCF Done:  E(RM062X) =  -655.115460946     A.U. after   13 cycles
 SCF Done:  E(RM062X) =  -655.115577531     A.U. after   11 cycles
 SCF Done:  E(RM062X) =  -655.115633720     A.U. after   11 cycles
 SCF Done:  E(RM062X) =  -655.115647047     A.U. after   10 cycles
 SCF Done:  E(RM062X) =  -655.115690261     A.U. after   11 cycles
 SCF Done:  E(RM062X) =  -655.115690138     A.U. after    7 cycles
 Optimization completed on the basis of negligible forces.
    -- Stationary point found.

                         Standard orientation:
 ---------------------------------------------------------------------
 Center     Atomic      Atomic             Coordinates (Angstroms)
 Number     Number       Type             X           Y           Z
 ---------------------------------------------------------------------
      1          6           0       -1.430115    0.870597   -0.056457
      2          6           0       -2.122847    0.792065    1.144058
      3          6           0       -3.449874    0.376485    1.155191
      4          6           0       -4.081695    0.040261   -0.033786
      5          6           0       -3.389203    0.118766   -1.233885
      6          6           0       -2.072964    0.568457   -1.249381
      7          9           0       -0.142714    1.273767   -0.067258
      8          1           0       -1.629332    1.054689    2.072768
      9          1           0       -3.990126    0.315239    2.091456
     10          1           0       -5.115337   -0.283441   -0.025114
     11          1           0       -3.882127   -0.143544   -2.161483
     12          1           0       -1.521671    0.595006   -2.182419
     13          8           0        3.330906    2.361587   -0.096401
     14          6           0        4.479039    2.720902   -0.108120
     15          1           0        5.288718    1.980943   -0.007952
     16          1           0        4.720448    3.790036   -0.217537
     17          1           0        0.826466   -0.588227    0.158215
     18          7           0        1.289420   -1.477759    0.264158
     19          6           0        1.623876   -2.189504   -0.835823
     20          8           0        2.184696   -3.271704   -0.786182
     21          6           0        1.611621   -2.024444    1.570426
     22          1           0        2.105334   -2.985452    1.472764
     23          1           0        2.277264   -1.352619    2.116578
     24          1           0        0.705750   -2.164775    2.164375
     25          1           0        1.341250   -1.698013   -1.778116
 ---------------------------------------------------------------------

 The electronic state is 1-A.
 Alpha  occ. eigenvalues --  -25.27314 -19.64554 -19.59466 -14.77426 -10.64283
 Alpha  occ. eigenvalues --  -10.64172 -10.63936 -10.56283 -10.56101 -10.56098
 Alpha  occ. eigenvalues --  -10.56005 -10.55999 -10.55303  -1.39186  -1.19293
 Alpha  occ. eigenvalues --   -1.16486  -1.03119  -0.98199  -0.86505  -0.86094
 Alpha  occ. eigenvalues --   -0.80566  -0.72338  -0.72002  -0.71641  -0.67927
 Alpha  occ. eigenvalues --   -0.64316  -0.62833  -0.58894  -0.58619  -0.58390
 Alpha  occ. eigenvalues --   -0.58311  -0.53951  -0.53906  -0.52668  -0.52495
 Alpha  occ. eigenvalues --   -0.50728  -0.49615  -0.49034  -0.47772  -0.45507
 Alpha  occ. eigenvalues --   -0.45453  -0.44962  -0.44085  -0.41795  -0.34848
 Alpha  occ. eigenvalues --   -0.34146  -0.32680  -0.32203  -0.31566
 Alpha virt. eigenvalues --   -0.00847  -0.00510   0.00191   0.00418   0.00768
 Alpha virt. eigenvalues --    0.01064   0.01688   0.01839   0.02654   0.02855
 Alpha virt. eigenvalues --    0.03633   0.04012   0.04442   0.05080   0.05225

 Mulliken charges:
               1
     1  C   -0.610131
     2  C    0.267674
     3  C   -0.376702
     4  C   -0.174706
     5  C   -0.365740
     6  C    0.243099
     7  F   -0.127962
     8  H    0.252536
     9  H    0.236526
    10  H    0.217439
    11  H    0.238445
    12  H    0.241632
    13  O   -0.275174
    14  C    0.032312
    15  H    0.132804
    16  H    0.126068
    17  H    0.232112
    18  N   -0.144581
    19  C    0.104838
    20  O   -0.467866
    21  C   -0.475316
    22  H    0.196230
    23  H    0.184220
    24  H    0.173658
    25  H    0.138585
 Sum of Mulliken charges =  -0.00000

 Dipole moment (field-independent basis, Debye):
    X=             -1.5467    Y=              4.4979    Z=              1.5365  Tot=              4.9984
 Quadrupole moment (field-independent basis, Debye-Ang):
   XX=            -52.6223   YY=            -94.7457   ZZ=            -67.5736
   XY=             22.9582   XZ=              3.4843   YZ=             -5.1466

  Exact polarizability:   0.000   0.000   0.000   0.000   0.000   0.000
 Approx polarizability: 156.444   9.591 117.351  -3.217   8.155 150.070

 Normal termination of Gaussian 16 at Sun Apr  7 11:15:08 2024.
