 Gaussian 16, Revision B.01,
 Gaussian 16:  ES64L-G16RevB.01 20-Dec-2017

 --------------------------------------------------------------------
 # opt=(z-matrix,loose) 6-311++g(d,p) m062x scrf=(solvent=chloroform)
 --------------------------------------------------------------------

 ----
 test
 ----
 Symbolic Z-matrix:
 Charge =  0 Multiplicity = 1

 SCF Done:  E(RM062X) =  -1073.30488961     A.U. after   14 cycles
 SCF Done:  E(RM062X) =  -1073.41141001     A.U. after   12 cycles
 SCF Done:  E(RM062X) =  -1073.47414707     A.U. after   14 cycles
 SCF Done:  E(RM062X) =  -1073.47649120     A.U. after   12 cycles
 SCF Done:  E(RM062X) =  -1073.47695176     A.U. after   12 cycles
 SCF Done:  E(RM062X) =  -1073.47706213     A.U. after   11 cycles
 SCF Done:  E(RM062X) =  -1073.47707546     A.U. after   10 cycles
 SCF Done:  E(RM062X) =  -1073.47720536     A.U. after   12 cycles
 SCF Done:  E(RM062X) =  -1073.47722381     A.U. after   11 cycles
 SCF Done:  E(RM062X) =  -1073.47722970     A.U. after    9 cycles
 SCF Done:  E(RM062X) =  -1073.47722963     A.U. after    9 cycles
 SCF Done:  E(RM062X) =  -1073.47722239     A.U. after   10 cycles
 SCF Done:  E(RM062X) =  -1073.47723226     A.U. after    9 cycles
 Optimization completed.
    -- Stationary point found.

                         Standard orientation:
 ---------------------------------------------------------------------
 Center     Atomic      Atomic             Coordinates (Angstroms)
 Number     Number       Type             X           Y           Z
 ---------------------------------------------------------------------
      1          6           0       -0.086466   -0.056200    1.412577
      2          6           0       -1.291550    0.102434    2.082492
      3          6           0       -1.322663    0.078911    3.472324
      4          6           0       -0.149059   -0.103138    4.189473
      5          6           0        1.056061   -0.261777    3.519537
      6          6           0        1.082153   -0.273936    2.129389
      7          9           0       -0.055961   -0.033137    0.049903
      8          1           0       -2.207848    0.244570    1.522575
      9          1           0       -2.262578    0.202639    3.994830
     10          1           0       -0.173292   -0.121460    5.272004
     11          1           0        1.971743   -0.403818    4.079078
     12          1           0        2.027357   -0.361549    1.607851
     13          8           0        0.007358    0.014736   -2.778616
     14          6           0        0.036379    0.034807   -3.982051
     15          1           0        0.183726    0.988019   -4.513452
     16          1           0       -0.085911   -0.899892   -4.551475
     17          1           0        0.249425    2.053273   -0.278675
     18          7           0        0.395402    3.038449   -0.433829
     19          6           0        1.656933    3.520663   -0.512796
     20          8           0        1.910928    4.698289   -0.698462
     21          6           0       -0.713694    3.965678   -0.576691
     22          1           0       -0.351084    4.975585   -0.736281
     23          1           0       -1.340653    3.689570   -1.427483
     24          1           0       -1.336205    3.964260    0.320871
     25          1           0        2.429895    2.747108   -0.393225
     26          1           0       -2.146062   -0.868268   -0.410099
     27          7           0       -3.063191   -1.235680   -0.610471
     28          6           0       -4.109576   -0.385423   -0.734511
     29          8           0       -5.244793   -0.755526   -0.975555
     30          6           0       -3.301318   -2.659829   -0.771952
     31          1           0       -4.348102   -2.852197   -0.981952
     32          1           0       -2.708534   -3.059134   -1.597617
     33          1           0       -3.030129   -3.202025    0.136489
     34          1           0       -3.834428    0.671325   -0.596428
     35          1           0        1.756094   -1.442328   -0.337799
     36          7           0        2.541191   -2.051712   -0.507175
     37          6           0        3.787306   -1.527384   -0.587068
     38          8           0        4.782247   -2.200189   -0.789117
     39          6           0        2.378526   -3.486277   -0.669801
     40          1           0        3.337120   -3.963702   -0.842832
     41          1           0        1.933519   -3.928154    0.224337
     42          1           0        1.728825   -3.707254   -1.519312
     43          1           0        3.812857   -0.435370   -0.451736
 ---------------------------------------------------------------------

 The electronic state is 1-A.
 Alpha  occ. eigenvalues --  -25.29209 -19.64988 -19.60214 -19.60177 -19.59856
 Alpha  occ. eigenvalues --  -14.78302 -14.78274 -14.77868 -10.65513 -10.64976
 Alpha  occ. eigenvalues --  -10.64940 -10.64596 -10.64347 -10.57226 -10.57223
 Alpha  occ. eigenvalues --  -10.56900 -10.56897 -10.56888 -10.56861 -10.56680
 Alpha  occ. eigenvalues --  -10.56140  -1.40619  -1.19682  -1.17289  -1.17253
 Alpha  occ. eigenvalues --   -1.16906  -1.03931  -1.03892  -1.03539  -0.99255
 Alpha  occ. eigenvalues --   -0.87543  -0.87186  -0.81251  -0.81216  -0.80960
 Alpha  occ. eigenvalues --   -0.73215  -0.73057  -0.72456  -0.68681  -0.68568
 Alpha  occ. eigenvalues --   -0.68354  -0.65425  -0.63578  -0.63476  -0.63297
 Alpha  occ. eigenvalues --   -0.60255  -0.60070  -0.59353  -0.58765  -0.54703
 Alpha  occ. eigenvalues --   -0.54666  -0.54382  -0.54311  -0.53640  -0.53269
 Alpha  occ. eigenvalues --   -0.53019  -0.52887  -0.51799  -0.51073  -0.49853
 Alpha  occ. eigenvalues --   -0.49779  -0.49452  -0.48191  -0.46209  -0.46172
 Alpha  occ. eigenvalues --   -0.46141  -0.46079  -0.46014  -0.45900  -0.45748
 Alpha  occ. eigenvalues --   -0.44935  -0.42833  -0.35306  -0.34858  -0.34830
 Alpha  occ. eigenvalues --   -0.34504  -0.33720  -0.33095  -0.32705  -0.32693
 Alpha  occ. eigenvalues --   -0.32323
 Alpha virt. eigenvalues --   -0.01388  -0.01302  -0.00816  -0.00421  -0.00174
 Alpha virt. eigenvalues --    0.00260   0.00413   0.01387   0.01597   0.01898
 Alpha virt. eigenvalues --    0.02021   0.02168   0.02623   0.03022   0.03816

 Mulliken charges:
               1
     1  C    0.359734
     2  C    0.054806
     3  C   -0.372846
     4  C   -0.556061
     5  C   -0.454484
     6  C    0.173675
     7  F   -0.038261
     8  H    0.055845
     9  H    0.273908
    10  H    0.213620
    11  H    0.273004
    12  H    0.104673
    13  O   -0.221615
    14  C    0.033818
    15  H    0.130512
    16  H    0.134754
    17  H    0.090025
    18  N   -0.063283
    19  C    0.082500
    20  O   -0.445104
    21  C   -0.448045
    22  H    0.194464
    23  H    0.188917
    24  H    0.182333
    25  H    0.173177
    26  H    0.021240
    27  N   -0.040537
    28  C    0.110293
    29  O   -0.448195
    30  C   -0.430900
    31  H    0.195581
    32  H    0.188962
    33  H    0.182043
    34  H    0.157489
    35  H    0.037593
    36  N   -0.043600
    37  C    0.099133
    38  O   -0.442364
    39  C   -0.438175
    40  H    0.195943
    41  H    0.182307
    42  H    0.188817
    43  H    0.164301
 Sum of Mulliken charges =  -0.00000

 Dipole moment (field-independent basis, Debye):
    X=             -2.5640    Y=             -3.3887    Z=              1.9685  Tot=              4.6832
 Quadrupole moment (field-independent basis, Debye-Ang):
   XX=           -194.5864   YY=           -153.1441   ZZ=            -96.4635
   XY=             -6.9017   XZ=              0.3076   YZ=              2.1742

 Normal termination of Gaussian 16 at Wed Apr  3 17:19:20 2024.
