 Gaussian 16, Revision B.01,
 Gaussian 16:  ES64L-G16RevB.01 20-Dec-2017

 -------------------------------------------------------
 # m062x 6-311++G(d,p) opt=z-matrix scrf=(solvent=water)
 -------------------------------------------------------

 ----
 test
 ----
 Symbolic Z-matrix:
 Charge =  0 Multiplicity = 1

 SCF Done:  E(RM062X) =  -747.194545584     A.U. after   14 cycles
 SCF Done:  E(RM062X) =  -747.270787710     A.U. after   13 cycles
 SCF Done:  E(RM062X) =  -747.291424180     A.U. after   13 cycles
 SCF Done:  E(RM062X) =  -747.291831288     A.U. after   10 cycles
 SCF Done:  E(RM062X) =  -747.292776448     A.U. after   10 cycles
 SCF Done:  E(RM062X) =  -747.292908815     A.U. after   10 cycles
 SCF Done:  E(RM062X) =  -747.292951038     A.U. after    9 cycles
 SCF Done:  E(RM062X) =  -747.292979416     A.U. after    8 cycles
 SCF Done:  E(RM062X) =  -747.292872860     A.U. after   11 cycles
 SCF Done:  E(RM062X) =  -747.293016448     A.U. after    9 cycles
 SCF Done:  E(RM062X) =  -747.293016887     A.U. after    7 cycles
 SCF Done:  E(RM062X) =  -747.293017170     A.U. after    7 cycles
 SCF Done:  E(RM062X) =  -747.293017297     A.U. after    7 cycles
 SCF Done:  E(RM062X) =  -747.293017312     A.U. after    6 cycles
 Optimization completed.
    -- Stationary point found.

                         Standard orientation:
 ---------------------------------------------------------------------
 Center     Atomic      Atomic             Coordinates (Angstroms)
 Number     Number       Type             X           Y           Z
 ---------------------------------------------------------------------
      1          6           0       -0.796476    0.006706    0.016894
      2          6           0       -1.485821    1.199927    0.001742
      3          6           0       -2.868906    1.199493   -0.007602
      4          6           0       -3.562038   -0.001775   -0.001724
      5          6           0       -2.864472   -1.209226    0.013608
      6          6           0       -1.466317   -1.208788    0.023054
      7          9           0        0.591681    0.007141    0.026272
      8          1           0       -0.944704    2.137737   -0.002847
      9          1           0       -3.410305    2.136627   -0.019502
     10          1           0       -4.644906   -0.002114   -0.009040
     11          1           0       -3.405361   -2.146641    0.018195
     12          1           0       -0.906836   -2.134702    0.034978
     13          8           0        3.221780    0.003375    0.044082
     14          6           0        4.427178    0.000272    0.052256
     15          1           0        4.970884    0.007974    1.008826
     16          1           0        4.983763   -0.008784   -0.896862
     17          1           0        0.904836    0.023482    1.875178
     18          9           0        0.737963    0.031446    2.785507
     19          1           0        0.959782    1.774307   -1.012296
     20          9           0        0.802166    2.558495   -1.475393
     21          1           0        0.964822   -1.797843   -0.992348
     22          9           0        0.807623   -2.590049   -1.441531
 ---------------------------------------------------------------------

 The electronic state is 1-A.
 Alpha  occ. eigenvalues --  -25.30497 -25.23908 -25.23858 -25.23206 -19.64828
 Alpha  occ. eigenvalues --  -10.65352 -10.64120 -10.57031 -10.56774 -10.56683
 Alpha  occ. eigenvalues --  -10.56436 -10.55931  -1.41308  -1.34996  -1.34940
 Alpha  occ. eigenvalues --   -1.34232  -1.19475  -0.99115  -0.87283  -0.87095
 Alpha  occ. eigenvalues --   -0.73210  -0.73093  -0.72140  -0.66021  -0.65479
 Alpha  occ. eigenvalues --   -0.65170  -0.64575  -0.60272  -0.59885  -0.59213
 Alpha  occ. eigenvalues --   -0.58477  -0.54326  -0.53558  -0.53255  -0.52264
 Alpha  occ. eigenvalues --   -0.52220  -0.51920  -0.51638  -0.51626  -0.51564
 Alpha  occ. eigenvalues --   -0.50299  -0.48013  -0.46000  -0.44601  -0.42532
 Alpha  occ. eigenvalues --   -0.35151  -0.33262  -0.32860
 Alpha virt. eigenvalues --   -0.01008  -0.00571  -0.00264   0.00349   0.00710
 Alpha virt. eigenvalues --    0.01236   0.01981   0.02111   0.03122   0.03463
 Alpha virt. eigenvalues --    0.04749   0.05700   0.06063   0.06932   0.07676

 Mulliken charges:
               1
     1  C   -0.199983
     2  C   -0.041609
     3  C   -0.257775
     4  C   -0.182446
     5  C   -0.266868
     6  C   -0.053674
     7  F   -0.162860
     8  H    0.216763
     9  H    0.248124
    10  H    0.223731
    11  H    0.249235
    12  H    0.216301
    13  O   -0.302128
    14  C    0.024398
    15  H    0.142525
    16  H    0.146335
    17  H    0.287804
    18  F   -0.278852
    19  H    0.257310
    20  F   -0.262286
    21  H    0.257654
    22  F   -0.261698
 Sum of Mulliken charges =  -0.00000

 Dipole moment (field-independent basis, Debye):
    X=              0.9383    Y=             -0.0050    Z=             -0.1540  Tot=              0.9509
 Quadrupole moment (field-independent basis, Debye-Ang):
   XX=            -32.5563   YY=            -76.5646   ZZ=            -87.1449
   XY=             -0.1272   XZ=              0.3405   YZ=             -0.1224

 1\1\GINC-R820\POpt\RM062X\6-311++G(d,p)\C7H10F4O1\ZJXU\17-Jun-2024\1\\
 # m062x 6-311++G(d,p) opt=z-matrix scrf=(solvent=water)\\test\\0,1\C\C
 ,1,d1\C,2,d2,1,120.\C,3,d3,2,120.,1,0.,0\C,4,d4,3,120.,2,0.,0\C,5,d5,4
 ,120.,3,0.,0\F,1,d6,2,120.,3,180.,0\H,2,d7,3,120.,4,180.,0\H,3,d8,4,12
 0.,5,180.,0\H,4,d9,5,120.,6,180.,0\H,5,d10,6,120.,1,180.,0\H,6,d11,1,1
 20.,2,180.,0\O,7,d12,1,179.9,3,180.,0\C,13,d13,1,179.9,2,180.,0\H,14,d
 14,1,120.,2,90.,0\H,14,d15,1,120.,2,-90.,0\H,7,d16,1,100.,2,90.,0\F,17
 ,d17,7,160.,1,0.,0\H,7,d18,1,100.,2,-30.,0\F,19,d19,7,160.,1,0.,0\H,7,

 Normal termination of Gaussian 16 at Mon Jun 17 10:31:49 2024.
