 Gaussian 16, Revision B.01,
 Gaussian 16:  ES64L-G16RevB.01 20-Dec-2017

 -------------------------------------------------------
 # m062x 6-311++G(d,p) opt=z-matrix scrf=(solvent=water)
 -------------------------------------------------------

 ----
 test
 ----
 Symbolic Z-matrix:
 Charge =  0 Multiplicity = 1

 SCF Done:  E(RM062X) =  -546.291673605     A.U. after   13 cycles
 SCF Done:  E(RM062X) =  -546.367888926     A.U. after   13 cycles
 SCF Done:  E(RM062X) =  -546.388938168     A.U. after   12 cycles
 SCF Done:  E(RM062X) =  -546.389437097     A.U. after   10 cycles
 SCF Done:  E(RM062X) =  -546.390617823     A.U. after   12 cycles
 SCF Done:  E(RM062X) =  -546.390671230     A.U. after   11 cycles
 SCF Done:  E(RM062X) =  -546.390735254     A.U. after   10 cycles
 SCF Done:  E(RM062X) =  -546.390748773     A.U. after    9 cycles
 SCF Done:  E(RM062X) =  -546.390767753     A.U. after   10 cycles
 SCF Done:  E(RM062X) =  -546.390784692     A.U. after    9 cycles
 SCF Done:  E(RM062X) =  -546.390846073     A.U. after   10 cycles
 SCF Done:  E(RM062X) =  -546.390853935     A.U. after    9 cycles
 SCF Done:  E(RM062X) =  -546.390854538     A.U. after    9 cycles
 SCF Done:  E(RM062X) =  -546.390795214     A.U. after   10 cycles
 SCF Done:  E(RM062X) =  -546.390854645     A.U. after    7 cycles
 SCF Done:  E(RM062X) =  -546.390854630     A.U. after    7 cycles
 SCF Done:  E(RM062X) =  -546.390854656     A.U. after    5 cycles
 SCF Done:  E(RM062X) =  -546.390854634     A.U. after    7 cycles
 SCF Done:  E(RM062X) =  -546.390854657     A.U. after    5 cycles
 SCF Done:  E(RM062X) =  -546.390854662     A.U. after    6 cycles
 Optimization completed.
    -- Stationary point found.

                         Standard orientation:
 ---------------------------------------------------------------------
 Center     Atomic      Atomic             Coordinates (Angstroms)
 Number     Number       Type             X           Y           Z
 ---------------------------------------------------------------------
      1          6           0       -0.773460   -0.320484   -0.012746
      2          6           0       -1.461887   -0.273371   -1.205247
      3          6           0       -2.844003   -0.223757   -1.204324
      4          6           0       -3.537240   -0.221429   -0.002591
      5          6           0       -2.839764   -0.269162    1.205584
      6          6           0       -1.440991   -0.319373    1.204649
      7          9           0        0.587113   -0.369324   -0.013655
      8          1           0       -0.920216   -0.275190   -2.144241
      9          1           0       -3.384971   -0.186735   -2.141395
     10          1           0       -4.619545   -0.182578   -0.001868
     11          1           0       -3.380707   -0.267345    2.143314
     12          1           0       -0.879508   -0.356917    2.130267
     13          8           0        4.122659   -0.496355   -0.009843
     14          6           0        5.326691   -0.539644   -0.007027
     15          1           0        5.910806    0.392919    0.011371
     16          1           0        5.842423   -1.511741   -0.024394
     17          1           0        0.974258    1.442984    0.020378
     18          9           0        0.846233    2.360297    0.037602
 ---------------------------------------------------------------------

 The electronic state is 1-A.
 Alpha  occ. eigenvalues --  -25.28260 -25.23050 -19.64636 -10.64424 -10.63940
 Alpha  occ. eigenvalues --  -10.56364 -10.56236 -10.56087 -10.55964 -10.55456
 Alpha  occ. eigenvalues --   -1.39871  -1.34074  -1.19313  -0.98406  -0.86661
 Alpha  occ. eigenvalues --   -0.86288  -0.72300  -0.72199  -0.71932  -0.65383
 Alpha  occ. eigenvalues --   -0.64341  -0.59247  -0.58676  -0.58372  -0.58341
 Alpha  occ. eigenvalues --   -0.54041  -0.52663  -0.51524  -0.51485  -0.50959
 Alpha  occ. eigenvalues --   -0.49994  -0.47841  -0.45263  -0.44167  -0.42005
 Alpha  occ. eigenvalues --   -0.34942  -0.32795  -0.32012
 Alpha virt. eigenvalues --   -0.00779  -0.00262   0.00159   0.00784   0.01008
 Alpha virt. eigenvalues --    0.01454   0.01970   0.02661   0.03417   0.03729
 Alpha virt. eigenvalues --    0.04680   0.06246   0.06686   0.07542   0.07545

 Mulliken charges:
               1
     1  C   -0.516122
     2  C    0.106099
     3  C   -0.252151
     4  C   -0.231725
     5  C   -0.260866
     6  C    0.087671
     7  F   -0.145787
     8  H    0.253104
     9  H    0.242302
    10  H    0.228289
    11  H    0.242980
    12  H    0.254223
    13  O   -0.305496
    14  C    0.035264
    15  H    0.139897
    16  H    0.137235
    17  H    0.264079
    18  F   -0.278997
 Sum of Mulliken charges =  -0.00000

 Dipole moment (field-independent basis, Debye):
    X=              0.6923    Y=             -2.4752    Z=             -0.0538  Tot=              2.5708
 Quadrupole moment (field-independent basis, Debye-Ang):
   XX=            -19.4588   YY=            -68.8201   ZZ=            -50.3318
   XY=             -3.1925   XZ=              0.1082   YZ=             -0.3352

 Normal termination of Gaussian 16 at Fri Mar 29 19:39:03 2024.
