 Gaussian 16, Revision B.01,
 Gaussian 16:  ES64L-G16RevB.01 20-Dec-2017

 -------------------------------------------------------
 # m062x 6-311++G(d,p) opt=z-matrix scrf=(solvent=water)
 -------------------------------------------------------

 ----
 test
 ----
 Symbolic Z-matrix:
 Charge =  0 Multiplicity = 1

 SCF Done:  E(RM062X) =  -646.744154450     A.U. after   13 cycles
 SCF Done:  E(RM062X) =  -646.820465191     A.U. after   13 cycles
 SCF Done:  E(RM062X) =  -646.841668389     A.U. after   12 cycles
 SCF Done:  E(RM062X) =  -646.842427192     A.U. after   10 cycles
 SCF Done:  E(RM062X) =  -646.844059073     A.U. after   11 cycles
 SCF Done:  E(RM062X) =  -646.844144983     A.U. after   11 cycles
 SCF Done:  E(RM062X) =  -646.844247619     A.U. after    9 cycles
 SCF Done:  E(RM062X) =  -646.844315627     A.U. after   11 cycles
 SCF Done:  E(RM062X) =  -646.844330879     A.U. after    9 cycles
 SCF Done:  E(RM062X) =  -646.844340459     A.U. after    8 cycles
 SCF Done:  E(RM062X) =  -646.844340973     A.U. after    8 cycles
 Optimization completed.
    -- Stationary point found.

                         Standard orientation:
 ---------------------------------------------------------------------
 Center     Atomic      Atomic             Coordinates (Angstroms)
 Number     Number       Type             X           Y           Z
 ---------------------------------------------------------------------
      1          6           0       -0.006300   -0.702293   -0.000000
      2          6           0       -1.197603   -1.390092   -0.000000
      3          6           0       -1.197603   -2.771693   -0.000000
      4          6           0        0.003170   -3.464959   -0.000000
      5          6           0        1.212526   -2.766737   -0.000000
      6          6           0        1.212526   -1.366075   -0.000000
      7          9           0       -0.006300    0.672177    0.000000
      8          1           0       -2.136538   -0.847998   -0.000000
      9          1           0       -2.135084   -3.312948   -0.000000
     10          1           0        0.003170   -4.547897   -0.000000
     11          1           0        2.149932   -3.307949   -0.000000
     12          1           0        2.136909   -0.801232   -0.000000
     13          8           0       -0.001604    3.363008    0.000000
     14          6           0        0.001892    4.568171    0.000000
     15          1           0        0.002747    5.118375    0.952983
     16          1           0        0.002747    5.118375   -0.952983
     17          1           0       -0.006300    0.994217    1.826381
     18          9           0       -0.006300    0.833403    2.738404
     19          1           0       -0.006300    0.994217   -1.826381
     20          9           0       -0.006300    0.833403   -2.738404
 ---------------------------------------------------------------------

 The electronic state is 1-A'.
 Alpha  occ. eigenvalues --  -25.29749 -25.23079 -25.23079 -19.64699 -10.64901
 Alpha  occ. eigenvalues --  -10.63984 -10.56826 -10.56542 -10.56504 -10.56230
 Alpha  occ. eigenvalues --  -10.55776  -1.41080  -1.34148  -1.34067  -1.19355
 Alpha  occ. eigenvalues --   -0.98847  -0.87018  -0.86786  -0.72932  -0.72602
 Alpha  occ. eigenvalues --   -0.72027  -0.66569  -0.65326  -0.63791  -0.60051
 Alpha  occ. eigenvalues --   -0.59064  -0.58792  -0.58383  -0.54026  -0.52894
 Alpha  occ. eigenvalues --   -0.51710  -0.51542  -0.51522  -0.51497  -0.51327
 Alpha  occ. eigenvalues --   -0.50617  -0.47875  -0.45764  -0.44473  -0.42394
 Alpha  occ. eigenvalues --   -0.35024  -0.33085  -0.32588
 Alpha virt. eigenvalues --   -0.00844  -0.00325  -0.00120   0.00483   0.00794
 Alpha virt. eigenvalues --    0.01377   0.02036   0.02167   0.03345   0.03611
 Alpha virt. eigenvalues --    0.04700   0.05723   0.07039   0.07709   0.07768

 Mulliken charges:
               1
     1  C   -0.697926
     2  C    0.087800
     3  C   -0.189912
     4  C   -0.213882
     5  C   -0.206267
     6  C    0.085038
     7  F   -0.096921
     8  H    0.238183
     9  H    0.247406
    10  H    0.219977
    11  H    0.248483
    12  H    0.239635
    13  O   -0.280563
    14  C    0.018138
    15  H    0.145905
    16  H    0.145905
    17  H    0.278523
    18  F   -0.274023
    19  H    0.278523
    20  F   -0.274023
 Sum of Mulliken charges =  -0.00000

 Dipole moment (field-independent basis, Debye):
    X=             -0.0071    Y=              0.7816    Z=             -0.0000  Tot=              0.7817
 Quadrupole moment (field-independent basis, Debye-Ang):
   XX=            -55.7458   YY=            -28.1216   ZZ=            -85.9875
   XY=              0.1639   XZ=             -0.0000   YZ=             -0.0000

 Normal termination of Gaussian 16 at Fri Mar 29 18:59:43 2024.
