 Gaussian 16, Revision B.01,
 Gaussian 16:  ES64L-G16RevB.01 20-Dec-2017

 ----------------------------------------------------------------------
 # opt=(z-matrix,recalc=5,loose) 6-311++g(d,p) m062x scrf=(solvent=dich
 loroethane)
 ----------------------------------------------------------------------

 ----
 test
 ----
 Symbolic Z-matrix:
 Charge =  0 Multiplicity = 1

 SCF Done:  E(RM062X) =  -1073.31093850     A.U. after   14 cycles
 SCF Done:  E(RM062X) =  -1073.41693251     A.U. after   12 cycles
 SCF Done:  E(RM062X) =  -1073.48091742     A.U. after   14 cycles
 SCF Done:  E(RM062X) =  -1073.48239978     A.U. after   12 cycles
 SCF Done:  E(RM062X) =  -1073.48267802     A.U. after   11 cycles
 SCF Done:  E(RM062X) =  -1073.48271134     A.U. after   11 cycles
 SCF Done:  E(RM062X) =  -1073.48272532     A.U. after   10 cycles
 SCF Done:  E(RM062X) =  -1073.48269863     A.U. after   11 cycles
 SCF Done:  E(RM062X) =  -1073.48272628     A.U. after    7 cycles
 Optimization completed.
    -- Stationary point found.

                         Standard orientation:
 ---------------------------------------------------------------------
 Center     Atomic      Atomic             Coordinates (Angstroms)
 Number     Number       Type             X           Y           Z
 ---------------------------------------------------------------------
      1          6           0       -0.091656   -0.043984    1.417376
      2          6           0       -1.300442    0.102935    2.084086
      3          6           0       -1.334110    0.087605    3.473856
      4          6           0       -0.159374   -0.074561    4.194645
      5          6           0        1.049063   -0.221437    3.528129
      6          6           0        1.078108   -0.241834    2.137761
      7          9           0       -0.058643   -0.028954    0.054683
      8          1           0       -2.217291    0.229501    1.521529
      9          1           0       -2.276656    0.202165    3.993720
     10          1           0       -0.185601   -0.086502    5.277248
     11          1           0        1.965384   -0.347931    4.090361
     12          1           0        2.025503   -0.320209    1.618630
     13          8           0        0.010972    0.002742   -2.818906
     14          6           0        0.042227    0.015753   -4.022945
     15          1           0        0.178073    0.967286   -4.559836
     16          1           0       -0.066537   -0.923719   -4.586633
     17          1           0        0.218417    2.047973   -0.284410
     18          7           0        0.351756    3.034221   -0.445429
     19          6           0        1.605391    3.531891   -0.524787
     20          8           0        1.844642    4.713579   -0.717587
     21          6           0       -0.769496    3.946124   -0.596296
     22          1           0       -0.419937    4.959572   -0.761416
     23          1           0       -1.390894    3.656568   -1.446446
     24          1           0       -1.393675    3.942055    0.299860
     25          1           0        2.387887    2.769675   -0.398931
     26          1           0       -2.134918   -0.893689   -0.403892
     27          7           0       -3.046875   -1.274459   -0.603831
     28          6           0       -4.102828   -0.439863   -0.735070
     29          8           0       -5.234366   -0.826995   -0.976443
     30          6           0       -3.265944   -2.702934   -0.756967
     31          1           0       -4.309534   -2.910353   -0.967817
     32          1           0       -2.666329   -3.099439   -1.578846
     33          1           0       -2.989558   -3.235794    0.155220
     34          1           0       -3.842017    0.620803   -0.603068
     35          1           0        1.788403   -1.428476   -0.323895
     36          7           0        2.581866   -2.028540   -0.487935
     37          6           0        3.819482   -1.489054   -0.568504
     38          8           0        4.825262   -2.151009   -0.764716
     39          6           0        2.438402   -3.466510   -0.642008
     40          1           0        3.403439   -3.932262   -0.810146
     41          1           0        1.997481   -3.908599    0.253824
     42          1           0        1.793524   -3.701248   -1.491286
     43          1           0        3.830363   -0.396672   -0.439993
 ---------------------------------------------------------------------

 The electronic state is 1-A.
 Alpha  occ. eigenvalues --  -25.28920 -19.64763 -19.60265 -19.60242 -19.59984
 Alpha  occ. eigenvalues --  -14.78266 -14.78259 -14.77898 -10.65226 -10.64964
 Alpha  occ. eigenvalues --  -10.64940 -10.64656 -10.64095 -10.56925 -10.56923
 Alpha  occ. eigenvalues --  -10.56750 -10.56736 -10.56606 -10.56601 -10.56595
 Alpha  occ. eigenvalues --  -10.55855  -1.40327  -1.19437  -1.17262  -1.17241
 Alpha  occ. eigenvalues --   -1.16951  -1.03890  -1.03869  -1.03565  -0.98962
 Alpha  occ. eigenvalues --   -0.87241  -0.86893  -0.81164  -0.81144  -0.80935
 Alpha  occ. eigenvalues --   -0.72907  -0.72750  -0.72202  -0.68631  -0.68517
 Alpha  occ. eigenvalues --   -0.68357  -0.65127  -0.63497  -0.63406  -0.63276
 Alpha  occ. eigenvalues --   -0.59961  -0.59807  -0.59049  -0.58503  -0.54712
 Alpha  occ. eigenvalues --   -0.54687  -0.54420  -0.54126  -0.53416  -0.53184
 Alpha  occ. eigenvalues --   -0.52889  -0.52870  -0.51511  -0.50771  -0.49829
 Alpha  occ. eigenvalues --   -0.49747  -0.49480  -0.47962  -0.46161  -0.46137
 Alpha  occ. eigenvalues --   -0.46004  -0.45927  -0.45924  -0.45905  -0.45643
 Alpha  occ. eigenvalues --   -0.44644  -0.42524  -0.35086  -0.34931  -0.34914
 Alpha  occ. eigenvalues --   -0.34646  -0.33472  -0.32972  -0.32681  -0.32659
 Alpha  occ. eigenvalues --   -0.32256
 Alpha virt. eigenvalues --   -0.01139  -0.01116  -0.00533  -0.00236   0.00013
 Alpha virt. eigenvalues --    0.00402   0.00615   0.01559   0.01707   0.02017
 Alpha virt. eigenvalues --    0.02108   0.02221   0.02712   0.03147   0.03872

 Mulliken charges:
               1
     1  C    0.373675
     2  C    0.051430
     3  C   -0.380071
     4  C   -0.561356
     5  C   -0.460069
     6  C    0.165118
     7  F   -0.039999
     8  H    0.059666
     9  H    0.276909
    10  H    0.216821
    11  H    0.275563
    12  H    0.111649
    13  O   -0.231509
    14  C    0.034375
    15  H    0.132651
    16  H    0.137471
    17  H    0.099591
    18  N   -0.067762
    19  C    0.080246
    20  O   -0.461053
    21  C   -0.449865
    22  H    0.191435
    23  H    0.191544
    24  H    0.185360
    25  H    0.184989
    26  H    0.034498
    27  N   -0.044322
    28  C    0.109060
    29  O   -0.464402
    30  C   -0.433724
    31  H    0.192815
    32  H    0.191282
    33  H    0.184716
    34  H    0.167011
    35  H    0.054426
    36  N   -0.049267
    37  C    0.097362
    38  O   -0.459043
    39  C   -0.441767
    40  H    0.193265
    41  H    0.185075
    42  H    0.191152
    43  H    0.175057
 Sum of Mulliken charges =  -0.00000

 Dipole moment (field-independent basis, Debye):
    X=             -2.6191    Y=             -3.5257    Z=              2.0292  Tot=              4.8382
 Quadrupole moment (field-independent basis, Debye-Ang):
   XX=           -197.1572   YY=           -154.5094   ZZ=            -96.0564
   XY=             -7.5695   XZ=              0.1372   YZ=              2.5672

  Exact polarizability:   0.000   0.000   0.000   0.000   0.000   0.000
 Approx polarizability: 256.045  -3.047 195.180  -0.344  -1.357 222.797

 Normal termination of Gaussian 16 at Wed Jan  8 13:11:46 2025.
