 Gaussian 16, Revision B.01,
 Gaussian 16:  ES64L-G16RevB.01 20-Dec-2017

 ----------------------------------------------------------------
 # opt=z-matrix 6-311++g(d,p) m062x scrf=(solvent=dichloroethane)
 ----------------------------------------------------------------

 ----
 test
 ----
 Symbolic Z-matrix:
 Charge =  0 Multiplicity = 1

 SCF Done:  E(RM062X) =  -864.155427874     A.U. after   14 cycles
 SCF Done:  E(RM062X) =  -864.252685505     A.U. after   12 cycles
 SCF Done:  E(RM062X) =  -864.301690194     A.U. after   13 cycles
 SCF Done:  E(RM062X) =  -864.301840354     A.U. after    9 cycles
 SCF Done:  E(RM062X) =  -864.301859076     A.U. after    9 cycles
 SCF Done:  E(RM062X) =  -864.301884262     A.U. after    8 cycles
 SCF Done:  E(RM062X) =  -864.301906881     A.U. after   10 cycles
 SCF Done:  E(RM062X) =  -864.301920525     A.U. after   10 cycles
 SCF Done:  E(RM062X) =  -864.301959558     A.U. after    9 cycles
 SCF Done:  E(RM062X) =  -864.301961605     A.U. after    8 cycles
 SCF Done:  E(RM062X) =  -864.301961236     A.U. after    7 cycles
 SCF Done:  E(RM062X) =  -864.301961938     A.U. after    6 cycles
 SCF Done:  E(RM062X) =  -864.301962181     A.U. after    6 cycles
 SCF Done:  E(RM062X) =  -864.301847356     A.U. after   10 cycles
 SCF Done:  E(RM062X) =  -864.301962444     A.U. after    6 cycles
 SCF Done:  E(RM062X) =  -864.301962444     A.U. after    8 cycles
 SCF Done:  E(RM062X) =  -864.301962681     A.U. after    6 cycles
 SCF Done:  E(RM062X) =  -864.301962685     A.U. after    6 cycles
 Optimization completed on the basis of negligible forces.
    -- Stationary point found.

                         Standard orientation:
 ---------------------------------------------------------------------
 Center     Atomic      Atomic             Coordinates (Angstroms)
 Number     Number       Type             X           Y           Z
 ---------------------------------------------------------------------
      1          6           0       -0.001370    1.305867   -0.001191
      2          6           0       -0.100374    2.000150   -1.198980
      3          6           0       -0.102725    3.390708   -1.198456
      4          6           0       -0.006090    4.084253   -0.000429
      5          6           0        0.092892    3.390123    1.197097
      6          6           0        0.059334    1.999519    1.199520
      7          9           0        0.000922   -0.050192   -0.001703
      8          1           0       -0.175877    1.458266   -2.135029
      9          1           0       -0.179943    3.932213   -2.132670
     10          1           0       -0.007921    5.167379   -0.000020
     11          1           0        0.168280    3.931184    2.131723
     12          1           0        0.173072    1.457764    2.131845
     13          8           0        0.006626   -3.424420   -0.002975
     14          6           0        0.008832   -4.628609   -0.001334
     15          1           0        0.960103   -5.177468   -0.078931
     16          1           0       -0.940542   -5.180740    0.076272
     17          1           0        2.096082   -0.417139   -0.172878
     18          7           0        3.086119   -0.590509   -0.251998
     19          6           0        3.833039   -0.704829    0.867852
     20          8           0        5.036138   -0.914406    0.850771
     21          6           0        3.741808   -0.722617   -1.541871
     22          1           0        4.803449   -0.905575   -1.415358
     23          1           0        3.317075   -1.554607   -2.107355
     24          1           0        3.620323    0.188363   -2.131761
     25          1           0        3.252855   -0.590933    1.794517
     26          1           0       -2.089442   -0.423716    0.168903
     27          7           0       -3.078609   -0.600494    0.251400
     28          6           0       -3.828967   -0.717212   -0.865879
     29          8           0       -5.031291   -0.930920   -0.844695
     30          6           0       -3.729395   -0.735035    1.543485
     31          1           0       -4.790833   -0.921615    1.420593
     32          1           0       -3.299868   -1.565647    2.107378
     33          1           0       -3.609007    0.176274    2.133097
     34          1           0       -3.252363   -0.601192   -1.794519
 ---------------------------------------------------------------------

 The electronic state is 1-A.
 Alpha  occ. eigenvalues --  -25.28405 -19.64656 -19.59872 -19.59867 -14.77786
 Alpha  occ. eigenvalues --  -14.77780 -10.64747 -10.64524 -10.64519 -10.63993
 Alpha  occ. eigenvalues --  -10.56480 -10.56477 -10.56473 -10.56468 -10.56258
 Alpha  occ. eigenvalues --  -10.56252 -10.55560  -1.40078  -1.19349  -1.16831
 Alpha  occ. eigenvalues --   -1.16825  -1.03454  -1.03442  -0.98563  -0.86804
 Alpha  occ. eigenvalues --   -0.86508  -0.80821  -0.80813  -0.72394  -0.72334
 Alpha  occ. eigenvalues --   -0.72128  -0.68410  -0.68106  -0.64772  -0.63305
 Alpha  occ. eigenvalues --   -0.62956  -0.59520  -0.59494  -0.58624  -0.58409
 Alpha  occ. eigenvalues --   -0.54334  -0.54288  -0.54028  -0.52906  -0.52766
 Alpha  occ. eigenvalues --   -0.52755  -0.51048  -0.50193  -0.49432  -0.49307
 Alpha  occ. eigenvalues --   -0.47864  -0.45811  -0.45806  -0.45722  -0.45681
 Alpha  occ. eigenvalues --   -0.45321  -0.44333  -0.42106  -0.34962  -0.34566
 Alpha  occ. eigenvalues --   -0.34550  -0.32972  -0.32672  -0.32436  -0.31945
 Alpha virt. eigenvalues --   -0.00895  -0.00856  -0.00119   0.00157   0.00272
 Alpha virt. eigenvalues --    0.00510   0.01122   0.01709   0.01984   0.02342
 Alpha virt. eigenvalues --    0.02583   0.03171   0.03320   0.03797   0.04018

 Mulliken charges:
               1
     1  C   -0.504004
     2  C    0.122559
     3  C   -0.235135
     4  C   -0.454686
     5  C   -0.208860
     6  C    0.129824
     7  F   -0.071861
     8  H    0.259853
     9  H    0.253119
    10  H    0.214961
    11  H    0.254319
    12  H    0.254165
    13  O   -0.275589
    14  C    0.039006
    15  H    0.133572
    16  H    0.133476
    17  H    0.278500
    18  N   -0.153875
    19  C    0.098799
    20  O   -0.480811
    21  C   -0.472972
    22  H    0.193850
    23  H    0.185647
    24  H    0.175840
    25  H    0.153546
    26  H    0.275191
    27  N   -0.154424
    28  C    0.101365
    29  O   -0.480710
    30  C   -0.473965
    31  H    0.193605
    32  H    0.186349
    33  H    0.175994
    34  H    0.153352
 Sum of Mulliken charges =  -0.00000

 Dipole moment (field-independent basis, Debye):
    X=              0.0347    Y=              1.2255    Z=             -0.0158  Tot=              1.2261
 Quadrupole moment (field-independent basis, Debye-Ang):
   XX=           -178.1595   YY=            -68.6895   ZZ=            -89.6772
   XY=             -0.1471   XZ=            -19.1855   YZ=             -0.0355

 Normal termination of Gaussian 16 at Mon Jan  6 20:13:55 2025.
