 Gaussian 16, Revision B.01,
 Gaussian 16:  ES64L-G16RevB.01 20-Dec-2017

 ----------------------------------------------------------------------
 # m062x 6-311++G(d,p) opt=(recalc=5,z-matrix,loose) scrf=(solvent=dich
 loroethane)
 ----------------------------------------------------------------------

 ----
 test
 ----
 Symbolic Z-matrix:
 Charge =  0 Multiplicity = 1

 SCF Done:  E(RM062X) =  -8170.15189077     A.U. after   15 cycles
 SCF Done:  E(RM062X) =  -8170.22678624     A.U. after   14 cycles
 SCF Done:  E(RM062X) =  -8170.24847137     A.U. after   13 cycles
 SCF Done:  E(RM062X) =  -8170.24885511     A.U. after   12 cycles
 SCF Done:  E(RM062X) =  -8170.24921853     A.U. after   12 cycles
 SCF Done:  E(RM062X) =  -8170.24943929     A.U. after   10 cycles
 SCF Done:  E(RM062X) =  -8170.24951573     A.U. after   11 cycles
 SCF Done:  E(RM062X) =  -8170.24953029     A.U. after    9 cycles
 SCF Done:  E(RM062X) =  -8170.24949602     A.U. after    9 cycles
 SCF Done:  E(RM062X) =  -8170.24953103     A.U. after    7 cycles
 SCF Done:  E(RM062X) =  -8170.24952781     A.U. after    8 cycles
 SCF Done:  E(RM062X) =  -8170.24954020     A.U. after    8 cycles
 SCF Done:  E(RM062X) =  -8170.24955713     A.U. after    8 cycles
 SCF Done:  E(RM062X) =  -8170.24955699     A.U. after    8 cycles
 SCF Done:  E(RM062X) =  -8170.24955479     A.U. after    8 cycles
 SCF Done:  E(RM062X) =  -8170.24955765     A.U. after    8 cycles
 Optimization completed.
    -- Stationary point found.

                         Standard orientation:
 ---------------------------------------------------------------------
 Center     Atomic      Atomic             Coordinates (Angstroms)
 Number     Number       Type             X           Y           Z
 ---------------------------------------------------------------------
      1          6           0       -0.011193    0.446851    1.136778
      2          6           0       -1.207979    0.607932    1.804403
      3          6           0       -1.211751    0.957671    3.143711
      4          6           0       -0.011903    1.146296    3.814971
      5          6           0        1.197740    0.983486    3.140174
      6          6           0        1.201549    0.630330    1.787785
      7          9           0       -0.007491    0.103704   -0.177286
      8          1           0       -2.144710    0.460671    1.280345
      9          1           0       -2.150779    1.084059    3.667546
     10          1           0       -0.014854    1.419924    4.862811
     11          1           0        2.133764    1.130636    3.663837
     12          1           0        2.130932    0.499665    1.247982
     13          8           0        0.008085   -0.776582   -3.548549
     14          6           0        0.014981   -1.080791   -4.713650
     15          1           0        0.007127   -0.297431   -5.487154
     16          1           0        0.027599   -2.142267   -5.005333
     17          1           0       -0.028999    2.039270   -1.064980
     18         35           0       -0.044742    3.459619   -1.180162
     19          1           0       -2.407519   -1.397184   -0.300623
     20         35           0       -3.614321   -2.026155    0.115632
     21          1           0        2.443640   -1.354637   -0.301929
     22         35           0        3.664145   -1.956722    0.114143
 ---------------------------------------------------------------------

 The electronic state is 1-A.
 Alpha  occ. eigenvalues -- -485.34555-485.34549-485.34108 -63.33777 -63.33770
 Alpha  occ. eigenvalues --  -63.33332 -57.16508 -57.16502 -57.16272 -57.16271
 Alpha  occ. eigenvalues --  -57.16266 -57.16265 -57.16058 -57.15831 -57.15831
 Alpha  occ. eigenvalues --  -25.27753 -19.64672 -10.64408 -10.64006 -10.56356
 Alpha  occ. eigenvalues --  -10.56246 -10.56131 -10.56025 -10.55451  -9.02489
 Alpha  occ. eigenvalues --   -9.02482  -9.02045  -6.85253  -6.85246  -6.84788
 Alpha  occ. eigenvalues --   -6.84280  -6.84275  -6.84274  -6.84269  -6.83848
 Alpha  occ. eigenvalues --   -6.83847  -2.88431  -2.88424  -2.88052  -2.88047
 Alpha  occ. eigenvalues --   -2.88045  -2.88040  -2.87968  -2.87597  -2.87597
 Alpha  occ. eigenvalues --   -2.87203  -2.87202  -2.87196  -2.87196  -2.86782
 Alpha  occ. eigenvalues --   -2.86781  -1.39353  -1.19368  -0.98378  -0.88475
 Alpha  occ. eigenvalues --   -0.88458  -0.88021  -0.86683  -0.86228  -0.72379
 Alpha  occ. eigenvalues --   -0.72246  -0.71756  -0.64462  -0.59580  -0.59110
 Alpha  occ. eigenvalues --   -0.58525  -0.58421  -0.54056  -0.52819  -0.51451
 Alpha  occ. eigenvalues --   -0.50544  -0.50221  -0.49924  -0.49654  -0.47879
 Alpha  occ. eigenvalues --   -0.45184  -0.44208  -0.42082  -0.36960  -0.36959
 Alpha  occ. eigenvalues --   -0.36940  -0.36914  -0.36635  -0.36620  -0.34967
 Alpha  occ. eigenvalues --   -0.32764  -0.31858
 Alpha virt. eigenvalues --   -0.00917  -0.00911   0.00004   0.00532   0.00631
 Alpha virt. eigenvalues --    0.00861   0.01305   0.01699   0.02366   0.02859
 Alpha virt. eigenvalues --    0.03230   0.03641   0.03976   0.04162   0.05315

 Mulliken charges:
               1
     1  C   -0.121817
     2  C    0.161250
     3  C   -0.369893
     4  C   -0.294582
     5  C   -0.368011
     6  C    0.148596
     7  F   -0.127458
     8  H    0.071096
     9  H    0.250813
    10  H    0.216173
    11  H    0.251677
    12  H    0.068858
    13  O   -0.287367
    14  C    0.031227
    15  H    0.132948
    16  H    0.134770
    17  H    0.167209
    18  Br  -0.134008
    19  H    0.172530
    20  Br  -0.138191
    21  H    0.171853
    22  Br  -0.137673
 Sum of Mulliken charges =  -0.00000

 Dipole moment (field-independent basis, Debye):
    X=              0.0043    Y=             -0.5607    Z=             -1.0925  Tot=              1.2280
 Quadrupole moment (field-independent basis, Debye-Ang):
   XX=           -114.5337   YY=           -120.5360   ZZ=            -78.0724
   XY=              0.0439   XZ=             -0.2660   YZ=             11.7485

  Exact polarizability: 176.080   0.262 141.080  -0.336  11.164 183.163
 Approx polarizability: 177.352   0.327 139.926  -0.370  11.498 180.330

 Normal termination of Gaussian 16 at Mon Jan  6 21:28:53 2025.
