 Gaussian 16, Revision B.01,
 Gaussian 16:  ES64L-G16RevB.01 20-Dec-2017

 ----------------------------------------------------------------------
 # m062x 6-311++G(d,p) opt=(z-matrix,recalc=5) scrf=(solvent=dichloroet
 hane)
 ----------------------------------------------------------------------

 ----
 test
 ----
 Symbolic Z-matrix:
 Charge =  0 Multiplicity = 1

 SCF Done:  E(RM062X) =  -3020.24523319     A.U. after   14 cycles
 SCF Done:  E(RM062X) =  -3020.50145315     A.U. after   13 cycles
 SCF Done:  E(RM062X) =  -3020.68695704     A.U. after   14 cycles
 SCF Done:  E(RM062X) =  -3020.69939768     A.U. after   13 cycles
 SCF Done:  E(RM062X) =  -3020.69831549     A.U. after   13 cycles
 SCF Done:  E(RM062X) =  -3020.70640834     A.U. after   13 cycles
 SCF Done:  E(RM062X) =  -3020.70836062     A.U. after   13 cycles
 SCF Done:  E(RM062X) =  -3020.70839681     A.U. after   11 cycles
 SCF Done:  E(RM062X) =  -3020.70840053     A.U. after    9 cycles
 SCF Done:  E(RM062X) =  -3020.70832323     A.U. after   10 cycles
 SCF Done:  E(RM062X) =  -3020.70829666     A.U. after   10 cycles
 SCF Done:  E(RM062X) =  -3020.70841709     A.U. after    8 cycles
 SCF Done:  E(RM062X) =  -3020.70829786     A.U. after   10 cycles
 SCF Done:  E(RM062X) =  -3020.70842820     A.U. after    8 cycles
 SCF Done:  E(RM062X) =  -3020.70842825     A.U. after    6 cycles
 Optimization completed.
    -- Stationary point found.

                         Standard orientation:
 ---------------------------------------------------------------------
 Center     Atomic      Atomic             Coordinates (Angstroms)
 Number     Number       Type             X           Y           Z
 ---------------------------------------------------------------------
      1          6           0       -1.143164   -1.041861   -0.007579
      2          6           0       -1.822678   -0.922239   -1.201829
      3          6           0       -3.186626   -0.688491   -1.201434
      4          6           0       -3.870790   -0.574431    0.000703
      5          6           0       -3.183266   -0.695463    1.209029
      6          6           0       -1.804569   -0.931739    1.208631
      7          9           0        0.190038   -1.270341   -0.007965
      8          1           0       -1.288334   -1.011323   -2.140719
      9          1           0       -3.720067   -0.594584   -2.138960
     10          1           0       -4.938289   -0.391487    0.001012
     11          1           0       -3.716978   -0.606485    2.146807
     12          1           0       -1.252973   -1.028730    2.135871
     13          8           0        3.767681   -1.883480   -0.002664
     14          6           0        4.954346   -2.086856    0.000626
     15          1           0        5.657974   -1.240079    0.003849
     16          1           0        5.335873   -3.119624   -0.001138
     17          1           0        0.906978    0.729273   -0.002599
     18         35           0        0.900129    2.154584    0.001143
 ---------------------------------------------------------------------

 The electronic state is 1-A.
 Alpha  occ. eigenvalues -- -485.33998 -63.33223 -57.15948 -57.15722 -57.15722
 Alpha  occ. eigenvalues --  -25.27103 -19.64562 -10.63999 -10.63905 -10.56058
 Alpha  occ. eigenvalues --  -10.55978 -10.55819 -10.55729 -10.55233  -9.01936
 Alpha  occ. eigenvalues --   -6.84677  -6.83739  -6.83739  -2.87857  -2.87487
 Alpha  occ. eigenvalues --   -2.87487  -2.86674  -2.86674  -1.38897  -1.19272
 Alpha  occ. eigenvalues --   -0.98060  -0.87913  -0.86390  -0.85894  -0.72282
 Alpha  occ. eigenvalues --   -0.71897  -0.71408  -0.64112  -0.59083  -0.58648
 Alpha  occ. eigenvalues --   -0.58333  -0.58098  -0.53948  -0.52452  -0.50673
 Alpha  occ. eigenvalues --   -0.49527  -0.49420  -0.47774  -0.44861  -0.43939
 Alpha  occ. eigenvalues --   -0.41713  -0.36536  -0.36524  -0.34862  -0.32539
 Alpha  occ. eigenvalues --   -0.31522
 Alpha virt. eigenvalues --   -0.00773  -0.00209   0.00361   0.00717   0.01272
 Alpha virt. eigenvalues --    0.01421   0.01784   0.02442   0.03329   0.03401
 Alpha virt. eigenvalues --    0.03878   0.05461   0.05843   0.06464   0.06549

 Mulliken charges:
               1
     1  C   -0.969535
     2  C    0.490930
     3  C   -0.492318
     4  C   -0.070314
     5  C   -0.495933
     6  C    0.459499
     7  F   -0.143812
     8  H    0.258757
     9  H    0.234155
    10  H    0.223846
    11  H    0.234829
    12  H    0.259979
    13  O   -0.294443
    14  C    0.036730
    15  H    0.133870
    16  H    0.132258
    17  H    0.125657
    18  Br  -0.124156
 Sum of Mulliken charges =  -0.00000

 Dipole moment (field-independent basis, Debye):
    X=              0.6599    Y=             -1.6962    Z=             -0.0095  Tot=              1.8201
 Quadrupole moment (field-independent basis, Debye-Ang):
   XX=            -37.2320   YY=            -75.1290   ZZ=            -65.1224
   XY=             -8.5321   XZ=              0.1388   YZ=             -0.0414

  Exact polarizability:   0.000   0.000   0.000   0.000   0.000   0.000
 Approx polarizability: 143.733  -8.178  95.072   0.249  -0.144 126.605

 Normal termination of Gaussian 16 at Mon Jan  6 19:46:29 2025.
