 Gaussian 16, Revision B.01,
 Gaussian 16:  ES64L-G16RevB.01 20-Dec-2017

 ----------------------------------------------------------------------
 # m062x 6-311++G(d,p) opt=(recalc=5,z-matrix) scrf=(solvent=dichloroet
 hane)
 ----------------------------------------------------------------------

 ----
 test
 ----
 Symbolic Z-matrix:
 Charge =  0 Multiplicity = 1

 SCF Done:  E(RM062X) =  -5594.65314565     A.U. after   14 cycles
 SCF Done:  E(RM062X) =  -5595.04373677     A.U. after   14 cycles
 SCF Done:  E(RM062X) =  -5595.39959349     A.U. after   14 cycles
 SCF Done:  E(RM062X) =  -5595.43286871     A.U. after   15 cycles
 SCF Done:  E(RM062X) =  -5595.47579588     A.U. after   13 cycles
 SCF Done:  E(RM062X) =  -5595.47743934     A.U. after   12 cycles
 SCF Done:  E(RM062X) =  -5595.48028837     A.U. after   12 cycles
 SCF Done:  E(RM062X) =  -5595.48098522     A.U. after   12 cycles
 SCF Done:  E(RM062X) =  -5595.48087398     A.U. after   11 cycles
 SCF Done:  E(RM062X) =  -5595.48099039     A.U. after    9 cycles
 SCF Done:  E(RM062X) =  -5595.48100100     A.U. after    8 cycles
 SCF Done:  E(RM062X) =  -5595.48100166     A.U. after    9 cycles
 Optimization completed.
    -- Stationary point found.

                         Standard orientation:
 ---------------------------------------------------------------------
 Center     Atomic      Atomic             Coordinates (Angstroms)
 Number     Number       Type             X           Y           Z
 ---------------------------------------------------------------------
      1          6           0       -0.003625   -1.063146   -0.000000
      2          6           0       -1.196929   -1.752100   -0.000000
      3          6           0       -1.196929   -3.135036   -0.000000
      4          6           0        0.004581   -3.828728   -0.000000
      5          6           0        1.213330   -3.130856   -0.000000
      6          6           0        1.213330   -1.731459   -0.000000
      7          9           0       -0.003625    0.295963    0.000000
      8          1           0       -2.135788   -1.210050   -0.000000
      9          1           0       -2.134525   -3.676357   -0.000000
     10          1           0        0.004581   -4.911741   -0.000000
     11          1           0        2.150862   -3.672141   -0.000000
     12          1           0        2.139717   -1.169848   -0.000000
     13          8           0        0.002234    3.653121    0.000000
     14          6           0        0.005831    4.857156    0.000000
     15          1           0        0.006711    5.407646    0.953478
     16          1           0        0.006711    5.407646   -0.953478
     17          1           0       -0.003625    0.666170    2.099547
     18         35           0       -0.003625    0.418698    3.503028
     19          1           0       -0.003625    0.666170   -2.099547
     20         35           0       -0.003625    0.418698   -3.503028
 ---------------------------------------------------------------------

 The electronic state is 1-A'.
 Alpha  occ. eigenvalues -- -485.34059-485.34059 -63.33285 -63.33285 -57.16010
 Alpha  occ. eigenvalues --  -57.16010 -57.15783 -57.15783 -57.15783 -57.15783
 Alpha  occ. eigenvalues --  -25.28022 -19.64580 -10.64320 -10.63920 -10.56328
 Alpha  occ. eigenvalues --  -10.56215 -10.56056 -10.55947 -10.55446  -9.01998
 Alpha  occ. eigenvalues --   -9.01998  -6.84741  -6.84741  -6.83800  -6.83800
 Alpha  occ. eigenvalues --   -6.83800  -6.83800  -2.87920  -2.87920  -2.87551
 Alpha  occ. eigenvalues --   -2.87551  -2.87549  -2.87549  -2.86734  -2.86734
 Alpha  occ. eigenvalues --   -2.86734  -2.86734  -1.39631  -1.19283  -0.98342
 Alpha  occ. eigenvalues --   -0.87995  -0.87960  -0.86625  -0.86215  -0.72309
 Alpha  occ. eigenvalues --   -0.72167  -0.71797  -0.64478  -0.60376  -0.59132
 Alpha  occ. eigenvalues --   -0.58387  -0.58346  -0.53952  -0.52658  -0.50946
 Alpha  occ. eigenvalues --   -0.50098  -0.49896  -0.49235  -0.47789  -0.45192
 Alpha  occ. eigenvalues --   -0.44144  -0.41979  -0.36602  -0.36592  -0.36588
 Alpha  occ. eigenvalues --   -0.36567  -0.34873  -0.32721  -0.31865
 Alpha virt. eigenvalues --   -0.00795  -0.00374   0.00154   0.00662   0.00830
 Alpha virt. eigenvalues --    0.01323   0.01678   0.01759   0.02746   0.03293
 Alpha virt. eigenvalues --    0.03356   0.04299   0.05104   0.05766   0.05783

 Mulliken charges:
               1
     1  C   -0.622457
     2  C    0.043879
     3  C   -0.116146
     4  C   -0.362091
     5  C   -0.135531
     6  C    0.035058
     7  F   -0.087820
     8  H    0.229996
     9  H    0.247355
    10  H    0.207519
    11  H    0.248045
    12  H    0.231782
    13  O   -0.292695
    14  C    0.042685
    15  H    0.132645
    16  H    0.132645
    17  H    0.178996
    18  Br  -0.146430
    19  H    0.178996
    20  Br  -0.146430
 Sum of Mulliken charges =  -0.00000

 Dipole moment (field-independent basis, Debye):
    X=             -0.0054    Y=              0.9318    Z=              0.0000  Tot=              0.9318
 Quadrupole moment (field-independent basis, Debye-Ang):
   XX=            -85.0857   YY=            -56.1072   ZZ=           -105.8587
   XY=              0.1597   XZ=              0.0000   YZ=              0.0000

  Exact polarizability:   0.000   0.000   0.000   0.000   0.000   0.000
 Approx polarizability: 145.246   0.293 164.204   0.000  -0.000 122.964

 Normal termination of Gaussian 16 at Mon Jan  6 19:48:42 2025.
