 Gaussian 16, Revision B.01,
 Gaussian 16:  ES64L-G16RevB.01 20-Dec-2017

 ----------------------------------------------------------------------
 # m062x 6-311++G(d,p) opt=(recalc=5,z-matrix) scrf=(solvent=chloroform
 )
 ----------------------------------------------------------------------

 ----
 test
 ----
 Symbolic Z-matrix:
 Charge =  0 Multiplicity = 1

 SCF Done:  E(RM062X) =  -8170.15039613     A.U. after   15 cycles
 SCF Done:  E(RM062X) =  -8170.22522351     A.U. after   14 cycles
 SCF Done:  E(RM062X) =  -8170.24681687     A.U. after   14 cycles
 SCF Done:  E(RM062X) =  -8170.24712403     A.U. after   10 cycles
 SCF Done:  E(RM062X) =  -8170.24741544     A.U. after   12 cycles
 SCF Done:  E(RM062X) =  -8170.24755593     A.U. after   10 cycles
 SCF Done:  E(RM062X) =  -8170.24729138     A.U. after   11 cycles
 SCF Done:  E(RM062X) =  -8170.24758697     A.U. after    9 cycles
 SCF Done:  E(RM062X) =  -8170.24758450     A.U. after    9 cycles
 SCF Done:  E(RM062X) =  -8170.24758309     A.U. after    8 cycles
 SCF Done:  E(RM062X) =  -8170.24758651     A.U. after    7 cycles
 SCF Done:  E(RM062X) =  -8170.24758690     A.U. after    2 cycles
 SCF Done:  E(RM062X) =  -8170.24758292     A.U. after    8 cycles
 SCF Done:  E(RM062X) =  -8170.24758431     A.U. after    8 cycles
 SCF Done:  E(RM062X) =  -8170.24758652     A.U. after    4 cycles
 SCF Done:  E(RM062X) =  -8170.24758691     A.U. after    2 cycles
 SCF Done:  E(RM062X) =  -8170.24758310     A.U. after    8 cycles
 SCF Done:  E(RM062X) =  -8170.24758337     A.U. after    8 cycles
 SCF Done:  E(RM062X) =  -8170.24758665     A.U. after    3 cycles
 Optimization completed.
    -- Stationary point found.

                         Standard orientation:
 ---------------------------------------------------------------------
 Center     Atomic      Atomic             Coordinates (Angstroms)
 Number     Number       Type             X           Y           Z
 ---------------------------------------------------------------------
      1          6           0       -0.010907    0.348835    1.132390
      2          6           0       -1.207522    0.462587    1.809896
      3          6           0       -1.211056    0.719602    3.169891
      4          6           0       -0.011218    0.862877    3.852014
      5          6           0        1.198058    0.747921    3.167340
      6          6           0        1.201626    0.488427    1.794228
      7          9           0       -0.007438    0.096532   -0.202669
      8          1           0       -2.144155    0.350742    1.277407
      9          1           0       -2.149966    0.808856    3.701489
     10          1           0       -0.013983    1.063979    4.916146
     11          1           0        2.134152    0.859702    3.699521
     12          1           0        2.130915    0.396046    1.246698
     13          8           0        0.006144   -0.490187   -3.307640
     14          6           0        0.012786   -0.713619   -4.490151
     15          1           0        0.003862    0.121270   -5.208375
     16          1           0        0.026269   -1.753011   -4.854117
     17          1           0       -0.030982    2.076057   -0.950827
     18         35           0       -0.048099    3.500915   -0.968304
     19          1           0       -2.342068   -1.354849   -0.421801
     20         35           0       -3.548220   -2.012112   -0.049204
     21          1           0        2.380368   -1.309413   -0.421991
     22         35           0        3.601827   -1.937558   -0.048568
 ---------------------------------------------------------------------

 The electronic state is 1-A.
 Alpha  occ. eigenvalues -- -485.34512-485.34504-485.33912 -63.33733 -63.33725
 Alpha  occ. eigenvalues --  -63.33137 -57.16466 -57.16457 -57.16229 -57.16227
 Alpha  occ. eigenvalues --  -57.16220 -57.16219 -57.15862 -57.15635 -57.15635
 Alpha  occ. eigenvalues --  -25.27722 -19.64690 -10.64377 -10.64063 -10.56347
 Alpha  occ. eigenvalues --  -10.56249 -10.56126 -10.56031 -10.55464  -9.02445
 Alpha  occ. eigenvalues --   -9.02437  -9.01849  -6.85212  -6.85203  -6.84593
 Alpha  occ. eigenvalues --   -6.84236  -6.84230  -6.84227  -6.84221  -6.83653
 Alpha  occ. eigenvalues --   -6.83650  -2.88390  -2.88381  -2.88009  -2.88004
 Alpha  occ. eigenvalues --   -2.88000  -2.87995  -2.87773  -2.87403  -2.87401
 Alpha  occ. eigenvalues --   -2.87157  -2.87156  -2.87148  -2.87148  -2.86585
 Alpha  occ. eigenvalues --   -2.86585  -1.39308  -1.19412  -0.98373  -0.88445
 Alpha  occ. eigenvalues --   -0.88424  -0.87833  -0.86685  -0.86224  -0.72479
 Alpha  occ. eigenvalues --   -0.72266  -0.71713  -0.64446  -0.59566  -0.59115
 Alpha  occ. eigenvalues --   -0.58565  -0.58502  -0.54025  -0.52849  -0.51516
 Alpha  occ. eigenvalues --   -0.50515  -0.50162  -0.49942  -0.49468  -0.47903
 Alpha  occ. eigenvalues --   -0.45157  -0.44236  -0.42117  -0.36904  -0.36899
 Alpha  occ. eigenvalues --   -0.36874  -0.36845  -0.36431  -0.36424  -0.34977
 Alpha  occ. eigenvalues --   -0.32729  -0.31832
 Alpha virt. eigenvalues --   -0.01019  -0.00782   0.00026   0.00502   0.00687
 Alpha virt. eigenvalues --    0.00904   0.01256   0.01746   0.02367   0.02886
 Alpha virt. eigenvalues --    0.03215   0.03700   0.04046   0.04333   0.05460

 Mulliken charges:
               1
     1  C   -0.102575
     2  C    0.181792
     3  C   -0.384103
     4  C   -0.292881
     5  C   -0.380741
     6  C    0.169410
     7  F   -0.124048
     8  H    0.052991
     9  H    0.247287
    10  H    0.211396
    11  H    0.248183
    12  H    0.050787
    13  O   -0.276195
    14  C    0.029966
    15  H    0.128573
    16  H    0.132041
    17  H    0.169360
    18  Br  -0.135124
    19  H    0.172823
    20  Br  -0.135804
    21  H    0.172064
    22  Br  -0.135204
 Sum of Mulliken charges =  -0.00000

 Dipole moment (field-independent basis, Debye):
    X=              0.0066    Y=             -0.4983    Z=             -1.0674  Tot=              1.1780
 Quadrupole moment (field-independent basis, Debye-Ang):
   XX=           -114.1838   YY=           -121.7358   ZZ=            -79.3660
   XY=              0.0755   XZ=             -0.2372   YZ=              8.2199

  Exact polarizability:   0.000   0.000   0.000   0.000   0.000   0.000
 Approx polarizability: 178.075   0.391 139.227  -0.349   8.681 182.391

 Normal termination of Gaussian 16 at Mon Apr  1 18:00:35 2024.
