 Gaussian 16, Revision B.01,
 Gaussian 16:  ES64L-G16RevB.01 20-Dec-2017

 ------------------------------------------------------------
 # m062x 6-311++G(d,p) opt=z-matrix scrf=(solvent=chloroform)
 ------------------------------------------------------------

 ----
 test
 ----
 Symbolic Z-matrix:
 Charge =  0 Multiplicity = 1

 SCF Done:  E(RM062X) =  -5594.65171983     A.U. after   14 cycles
 SCF Done:  E(RM062X) =  -5595.04923657     A.U. after   14 cycles
 SCF Done:  E(RM062X) =  -5595.40044880     A.U. after   14 cycles
 SCF Done:  E(RM062X) =  -5595.45152805     A.U. after   14 cycles
 SCF Done:  E(RM062X) =  -5595.47757367     A.U. after   12 cycles
 SCF Done:  E(RM062X) =  -5595.46736486     A.U. after   12 cycles
 SCF Done:  E(RM062X) =  -5595.47865978     A.U. after   11 cycles
 SCF Done:  E(RM062X) =  -5595.47906520     A.U. after   11 cycles
 SCF Done:  E(RM062X) =  -5595.47921368     A.U. after   11 cycles
 SCF Done:  E(RM062X) =  -5595.47520203     A.U. after   12 cycles
 SCF Done:  E(RM062X) =  -5595.47926789     A.U. after   10 cycles
 SCF Done:  E(RM062X) =  -5595.47926924     A.U. after    8 cycles
 SCF Done:  E(RM062X) =  -5595.47927150     A.U. after   10 cycles
 SCF Done:  E(RM062X) =  -5595.47927322     A.U. after    9 cycles
 SCF Done:  E(RM062X) =  -5595.47927391     A.U. after    8 cycles
 SCF Done:  E(RM062X) =  -5595.47927410     A.U. after    8 cycles
 Optimization completed.
    -- Stationary point found.

                         Standard orientation:
 ---------------------------------------------------------------------
 Center     Atomic      Atomic             Coordinates (Angstroms)
 Number     Number       Type             X           Y           Z
 ---------------------------------------------------------------------
      1          6           0       -0.003470   -0.998528    0.000000
      2          6           0       -1.196769   -1.687479    0.000000
      3          6           0       -1.196769   -3.070522    0.000000
      4          6           0        0.004512   -3.764081    0.000000
      5          6           0        1.213135   -3.066283    0.000000
      6          6           0        1.213135   -1.667410    0.000000
      7          9           0       -0.003470    0.359807   -0.000000
      8          1           0       -2.135620   -1.145433    0.000000
      9          1           0       -2.134395   -3.611861    0.000000
     10          1           0        0.004512   -4.847130    0.000000
     11          1           0        2.150694   -3.607583    0.000000
     12          1           0        2.139798   -1.106241    0.000000
     13          8           0        0.001474    3.192584   -0.000000
     14          6           0        0.004993    4.395849   -0.000000
     15          1           0        0.005858    4.946612    0.953951
     16          1           0        0.005858    4.946612   -0.953951
     17          1           0       -0.003470    0.723979    2.065326
     18         35           0       -0.003470    0.476412    3.469349
     19          1           0       -0.003470    0.723979   -2.065326
     20         35           0       -0.003470    0.476412   -3.469349
 ---------------------------------------------------------------------

 The electronic state is 1-A'.
 Alpha  occ. eigenvalues -- -485.33779-485.33779 -63.33005 -63.33005 -57.15729
 Alpha  occ. eigenvalues --  -57.15729 -57.15504 -57.15504 -57.15504 -57.15504
 Alpha  occ. eigenvalues --  -25.27778 -19.64550 -10.64166 -10.63925 -10.56245
 Alpha  occ. eigenvalues --  -10.56153 -10.55982 -10.55890 -10.55396  -9.01718
 Alpha  occ. eigenvalues --   -9.01718  -6.84459  -6.84459  -6.83523  -6.83523
 Alpha  occ. eigenvalues --   -6.83522  -6.83522  -2.87638  -2.87638  -2.87270
 Alpha  occ. eigenvalues --   -2.87270  -2.87270  -2.87269  -2.86458  -2.86458
 Alpha  occ. eigenvalues --   -2.86458  -2.86458  -1.39424  -1.19281  -0.98251
 Alpha  occ. eigenvalues --   -0.87725  -0.87684  -0.86557  -0.86116  -0.72444
 Alpha  occ. eigenvalues --   -0.72097  -0.71568  -0.64364  -0.60272  -0.58991
 Alpha  occ. eigenvalues --   -0.58378  -0.58351  -0.53840  -0.52578  -0.50886
 Alpha  occ. eigenvalues --   -0.49817  -0.49777  -0.48879  -0.47754  -0.45068
 Alpha  occ. eigenvalues --   -0.44099  -0.41927  -0.36351  -0.36331  -0.36313
 Alpha  occ. eigenvalues --   -0.36302  -0.34828  -0.32625  -0.31734
 Alpha virt. eigenvalues --   -0.00852  -0.00276   0.00236   0.00655   0.00928
 Alpha virt. eigenvalues --    0.01303   0.01807   0.01852   0.02767   0.03279
 Alpha virt. eigenvalues --    0.03482   0.04511   0.05286   0.05907   0.05967

 Mulliken charges:
               1
     1  C   -0.689941
     2  C    0.074621
     3  C   -0.102457
     4  C   -0.370632
     5  C   -0.121300
     6  C    0.065942
     7  F   -0.078292
     8  H    0.224117
     9  H    0.243121
    10  H    0.201636
    11  H    0.243821
    12  H    0.225825
    13  O   -0.272063
    14  C    0.033992
    15  H    0.130384
    16  H    0.130384
    17  H    0.176238
    18  Br  -0.145817
    19  H    0.176238
    20  Br  -0.145817
 Sum of Mulliken charges =  -0.00000

 Dipole moment (field-independent basis, Debye):
    X=             -0.0037    Y=              0.9438    Z=             -0.0000  Tot=              0.9438
 Quadrupole moment (field-independent basis, Debye-Ang):
   XX=            -85.2973   YY=            -60.2763   ZZ=           -106.0094
   XY=              0.1429   XZ=              0.0000   YZ=              0.0000

 Normal termination of Gaussian 16 at Wed Mar 27 15:56:59 2024.
