 Gaussian 16, Revision B.01,
 Gaussian 16:  ES64L-G16RevB.01 20-Dec-2017

 ----------------------------------------------------------------------
 # m062x 6-311++G(d,p) opt=(z-matrix,maxcyc=50) scrf=(solvent=chlorofor
 m)
 ----------------------------------------------------------------------

 ----
 test
 ----
 Symbolic Z-matrix:
 Charge =  0 Multiplicity = 1

 SCF Done:  E(RM062X) =  -3020.24159152     A.U. after   13 cycles
 SCF Done:  E(RM062X) =  -3020.50773022     A.U. after   14 cycles
 SCF Done:  E(RM062X) =  -3020.69023345     A.U. after   14 cycles
 SCF Done:  E(RM062X) =  -3020.70005338     A.U. after   13 cycles
 SCF Done:  E(RM062X) =  -3020.69990557     A.U. after   11 cycles
 SCF Done:  E(RM062X) =  -3020.70278389     A.U. after   11 cycles
 SCF Done:  E(RM062X) =  -3020.70444128     A.U. after   12 cycles
 SCF Done:  E(RM062X) =  -3020.70509436     A.U. after   11 cycles
 SCF Done:  E(RM062X) =  -3020.70549565     A.U. after   13 cycles
 SCF Done:  E(RM062X) =  -3020.70535430     A.U. after   11 cycles
 SCF Done:  E(RM062X) =  -3020.70657971     A.U. after   10 cycles
 SCF Done:  E(RM062X) =  -3020.70658476     A.U. after    9 cycles
 SCF Done:  E(RM062X) =  -3020.70658700     A.U. after    8 cycles
 SCF Done:  E(RM062X) =  -3020.70577349     A.U. after   11 cycles
 SCF Done:  E(RM062X) =  -3020.70651510     A.U. after   12 cycles
 SCF Done:  E(RM062X) =  -3020.70626783     A.U. after   11 cycles
 SCF Done:  E(RM062X) =  -3020.70658928     A.U. after    5 cycles
 SCF Done:  E(RM062X) =  -3020.70657897     A.U. after    9 cycles
 SCF Done:  E(RM062X) =  -3020.70659128     A.U. after    9 cycles
 SCF Done:  E(RM062X) =  -3020.70659134     A.U. after    7 cycles
 Optimization completed.
    -- Stationary point found.

                         Standard orientation:
 ---------------------------------------------------------------------
 Center     Atomic      Atomic             Coordinates (Angstroms)
 Number     Number       Type             X           Y           Z
 ---------------------------------------------------------------------
      1          6           0        1.141958    1.041055   -0.007497
      2          6           0        1.821432    0.921175   -1.201728
      3          6           0        3.185210    0.686874   -1.201320
      4          6           0        3.869251    0.572517    0.000718
      5          6           0        3.181879    0.693791    1.208831
      6          6           0        1.803576    0.930588    1.208419
      7          9           0       -0.190331    1.269947   -0.007896
      8          1           0        1.287165    1.010493   -2.140574
      9          1           0        3.718624    0.592763   -2.138837
     10          1           0        4.936669    0.389131    0.001037
     11          1           0        3.715538    0.604575    2.146610
     12          1           0        1.252291    1.027742    2.135766
     13          8           0       -3.762110    1.883607   -0.002639
     14          6           0       -4.947735    2.087310    0.000635
     15          1           0       -5.652022    1.240454    0.003835
     16          1           0       -5.329005    3.120701   -0.001115
     17          1           0       -0.907551   -0.727840   -0.002581
     18         35           0       -0.901294   -2.153036    0.001134
 ---------------------------------------------------------------------

 The electronic state is 1-A.
 Alpha  occ. eigenvalues -- -485.33746 -63.32971 -57.15696 -57.15470 -57.15469
 Alpha  occ. eigenvalues --  -25.26929 -19.64491 -10.63898 -10.63876 -10.56008
 Alpha  occ. eigenvalues --  -10.55915 -10.55775 -10.55669 -10.55195  -9.01684
 Alpha  occ. eigenvalues --   -6.84427  -6.83487  -6.83486  -2.87607  -2.87237
 Alpha  occ. eigenvalues --   -2.87236  -2.86420  -2.86420  -1.38749  -1.19236
 Alpha  occ. eigenvalues --   -0.97992  -0.87667  -0.86339  -0.85823  -0.72282
 Alpha  occ. eigenvalues --   -0.71846  -0.71320  -0.64035  -0.58923  -0.58552
 Alpha  occ. eigenvalues --   -0.58336  -0.58053  -0.53846  -0.52431  -0.50637
 Alpha  occ. eigenvalues --   -0.49324  -0.49304  -0.47710  -0.44761  -0.43916
 Alpha  occ. eigenvalues --   -0.41676  -0.36268  -0.36267  -0.34785  -0.32462
 Alpha  occ. eigenvalues --   -0.31420
 Alpha virt. eigenvalues --   -0.00776  -0.00140   0.00433   0.00670   0.01349
 Alpha virt. eigenvalues --    0.01398   0.01751   0.02496   0.03309   0.03396
 Alpha virt. eigenvalues --    0.03900   0.05610   0.05914   0.06574   0.06586

 Mulliken charges:
               1
     1  C   -0.975790
     2  C    0.494584
     3  C   -0.486074
     4  C   -0.064155
     5  C   -0.489738
     6  C    0.463643
     7  F   -0.141063
     8  H    0.254858
     9  H    0.229015
    10  H    0.218867
    11  H    0.229720
    12  H    0.256096
    13  O   -0.283043
    14  C    0.034625
    15  H    0.129402
    16  H    0.127678
    17  H    0.124382
    18  Br  -0.123007
 Sum of Mulliken charges =  -0.00000

 Dipole moment (field-independent basis, Debye):
    X=             -0.6377    Y=              1.6785    Z=             -0.0081  Tot=              1.7956
 Quadrupole moment (field-independent basis, Debye-Ang):
   XX=            -38.5216   YY=            -75.1673   ZZ=            -65.2802
   XY=             -8.3382   XZ=             -0.1312   YZ=              0.0408

 Normal termination of Gaussian 16 at Thu Mar 28 13:39:10 2024.
