 Gaussian 16, Revision B.01,
 Gaussian 16:  ES64L-G16RevB.01 20-Dec-2017

 -------------------------------------------------------
 # opt=z-matrix 6-311++g(d,p) m062x scrf=(solvent=water)
 -------------------------------------------------------

 ----
 test
 ----
 Symbolic Z-matrix:
 Charge =  0 Multiplicity = 1

 SCF Done:  E(RM062X) =  -864.159150554     A.U. after   14 cycles
 SCF Done:  E(RM062X) =  -864.256359426     A.U. after   12 cycles
 SCF Done:  E(RM062X) =  -864.305252552     A.U. after   13 cycles
 SCF Done:  E(RM062X) =  -864.305428099     A.U. after    9 cycles
 SCF Done:  E(RM062X) =  -864.305427608     A.U. after   11 cycles
 SCF Done:  E(RM062X) =  -864.305591720     A.U. after    9 cycles
 SCF Done:  E(RM062X) =  -864.305634198     A.U. after    8 cycles
 SCF Done:  E(RM062X) =  -864.305637150     A.U. after    7 cycles
 SCF Done:  E(RM062X) =  -864.305627892     A.U. after   10 cycles
 SCF Done:  E(RM062X) =  -864.305672996     A.U. after    9 cycles
 SCF Done:  E(RM062X) =  -864.305675177     A.U. after    8 cycles
 SCF Done:  E(RM062X) =  -864.305675671     A.U. after    8 cycles
 SCF Done:  E(RM062X) =  -864.305675568     A.U. after    7 cycles
 SCF Done:  E(RM062X) =  -864.305675711     A.U. after    6 cycles
 SCF Done:  E(RM062X) =  -864.305674567     A.U. after    8 cycles
 SCF Done:  E(RM062X) =  -864.305675735     A.U. after    4 cycles
 SCF Done:  E(RM062X) =  -864.305675737     A.U. after    4 cycles
 SCF Done:  E(RM062X) =  -864.305675734     A.U. after    5 cycles
 SCF Done:  E(RM062X) =  -864.305675738     A.U. after    4 cycles
 SCF Done:  E(RM062X) =  -864.305675738     A.U. after    4 cycles
 Optimization completed.
    -- Stationary point found.

                         Standard orientation:
 ---------------------------------------------------------------------
 Center     Atomic      Atomic             Coordinates (Angstroms)
 Number     Number       Type             X           Y           Z
 ---------------------------------------------------------------------
      1          6           0       -0.001635    1.311269   -0.001207
      2          6           0       -0.100721    2.005562   -1.199072
      3          6           0       -0.103227    3.396232   -1.198567
      4          6           0       -0.006659    4.089872   -0.000434
      5          6           0        0.092410    3.395699    1.197223
      6          6           0        0.058996    2.004979    1.199555
      7          9           0        0.000809   -0.045127   -0.001699
      8          1           0       -0.176162    1.463676   -2.135080
      9          1           0       -0.180507    3.937726   -2.132808
     10          1           0       -0.008611    5.173042   -0.000041
     11          1           0        0.167740    3.936791    2.131859
     12          1           0        0.172791    1.463265    2.131861
     13          8           0        0.006971   -3.465911   -0.002941
     14          6           0        0.009313   -4.670795   -0.001282
     15          1           0        0.960319   -5.219362   -0.078844
     16          1           0       -0.939676   -5.222841    0.076306
     17          1           0        2.089382   -0.410683   -0.172328
     18          7           0        3.079606   -0.583975   -0.251459
     19          6           0        3.825837   -0.698088    0.867340
     20          8           0        5.030520   -0.907803    0.850240
     21          6           0        3.735536   -0.716074   -1.541775
     22          1           0        4.797106   -0.898895   -1.415270
     23          1           0        3.310951   -1.548008   -2.107172
     24          1           0        3.613968    0.194741   -2.131584
     25          1           0        3.245841   -0.584282    1.793684
     26          1           0       -2.082448   -0.417617    0.168336
     27          7           0       -3.071763   -0.594534    0.250850
     28          6           0       -3.821409   -0.711243   -0.865384
     29          8           0       -5.025261   -0.925360   -0.844170
     30          6           0       -3.722761   -0.729176    1.543385
     31          1           0       -4.784086   -0.915860    1.420506
     32          1           0       -3.293198   -1.559623    2.107215
     33          1           0       -3.602493    0.182013    2.132893
     34          1           0       -3.245016   -0.595212   -1.793708
 ---------------------------------------------------------------------

 The electronic state is 1-A.
 Alpha  occ. eigenvalues --  -25.28296 -19.64633 -19.60062 -19.60060 -14.77902
 Alpha  occ. eigenvalues --  -14.77899 -10.64657 -10.64655 -10.64594 -10.63939
 Alpha  occ. eigenvalues --  -10.56483 -10.56481 -10.56305 -10.56303 -10.56085
 Alpha  occ. eigenvalues --  -10.56079 -10.55402  -1.39958  -1.19300  -1.16955
 Alpha  occ. eigenvalues --   -1.16953  -1.03560  -1.03549  -0.98401  -0.86627
 Alpha  occ. eigenvalues --   -0.86352  -0.80878  -0.80872  -0.72308  -0.72151
 Alpha  occ. eigenvalues --   -0.72000  -0.68505  -0.68197  -0.64620  -0.63370
 Alpha  occ. eigenvalues --   -0.63030  -0.59429  -0.59346  -0.58444  -0.58336
 Alpha  occ. eigenvalues --   -0.54483  -0.54440  -0.54026  -0.52839  -0.52832
 Alpha  occ. eigenvalues --   -0.52711  -0.50865  -0.50027  -0.49543  -0.49408
 Alpha  occ. eigenvalues --   -0.47832  -0.45912  -0.45911  -0.45727  -0.45724
 Alpha  occ. eigenvalues --   -0.45223  -0.44153  -0.41916  -0.34949  -0.34768
 Alpha  occ. eigenvalues --   -0.34751  -0.32821  -0.32739  -0.32572  -0.31882
 Alpha virt. eigenvalues --   -0.00809  -0.00785   0.00047   0.00243   0.00365
 Alpha virt. eigenvalues --    0.00613   0.01160   0.01851   0.01993   0.02436
 Alpha virt. eigenvalues --    0.02620   0.03096   0.03407   0.03829   0.03976

 Mulliken charges:
               1
     1  C   -0.493582
     2  C    0.124260
     3  C   -0.246960
     4  C   -0.455817
     5  C   -0.221265
     6  C    0.130094
     7  F   -0.073029
     8  H    0.262524
     9  H    0.256202
    10  H    0.218064
    11  H    0.257403
    12  H    0.256954
    13  O   -0.284977
    14  C    0.040025
    15  H    0.136501
    16  H    0.136401
    17  H    0.283819
    18  N   -0.158292
    19  C    0.099779
    20  O   -0.493648
    21  C   -0.472311
    22  H    0.191788
    23  H    0.187293
    24  H    0.178773
    25  H    0.162140
    26  H    0.281297
    27  N   -0.158742
    28  C    0.101962
    29  O   -0.493504
    30  C   -0.473587
    31  H    0.191531
    32  H    0.188046
    33  H    0.178923
    34  H    0.161936
 Sum of Mulliken charges =  -0.00000

 Dipole moment (field-independent basis, Debye):
    X=              0.0358    Y=              1.2213    Z=             -0.0168  Tot=              1.2220
 Quadrupole moment (field-independent basis, Debye-Ang):
   XX=           -180.2222   YY=            -67.9311   ZZ=            -89.3432
   XY=             -0.1576   XZ=            -19.6404   YZ=             -0.0388

 Normal termination of Gaussian 16 at Sat Mar 23 19:36:01 2024.
