 Gaussian 16, Revision B.01,
 Gaussian 16:  ES64L-G16RevB.01 20-Dec-2017

 ------------------------------------------------------------
 # opt=z-matrix 6-311++g(d,p) m062x scrf=(solvent=chloroform)
 ------------------------------------------------------------

 ----
 test
 ----
 Symbolic Z-matrix:
 Charge =  0 Multiplicity = 1

 SCF Done:  E(RM062X) =  -864.151131016     A.U. after   14 cycles
 SCF Done:  E(RM062X) =  -864.248462315     A.U. after   12 cycles
 SCF Done:  E(RM062X) =  -864.297648484     A.U. after   13 cycles
 SCF Done:  E(RM062X) =  -864.297793031     A.U. after    9 cycles
 SCF Done:  E(RM062X) =  -864.297799649     A.U. after    8 cycles
 SCF Done:  E(RM062X) =  -864.297695871     A.U. after   11 cycles
 SCF Done:  E(RM062X) =  -864.297800190     A.U. after    7 cycles
 SCF Done:  E(RM062X) =  -864.297800298     A.U. after    8 cycles
 SCF Done:  E(RM062X) =  -864.297800303     A.U. after    5 cycles
 SCF Done:  E(RM062X) =  -864.297800299     A.U. after    6 cycles
 SCF Done:  E(RM062X) =  -864.297800303     A.U. after    4 cycles
 Optimization completed.
    -- Stationary point found.

                         Standard orientation:
 ---------------------------------------------------------------------
 Center     Atomic      Atomic             Coordinates (Angstroms)
 Number     Number       Type             X           Y           Z
 ---------------------------------------------------------------------
      1          6           0       -0.000478    1.243904   -0.001133
      2          6           0       -0.100220    1.938321   -1.198798
      3          6           0       -0.102028    3.328782   -1.198169
      4          6           0       -0.004120    4.022157   -0.000245
      5          6           0        0.095593    3.327946    1.197065
      6          6           0        0.061509    1.937457    1.199605
      7          9           0        0.001284   -0.111185   -0.001746
      8          1           0       -0.176725    1.396523   -2.134846
      9          1           0       -0.179822    3.870390   -2.132283
     10          1           0       -0.005528    5.105258    0.000245
     11          1           0        0.171980    3.868913    2.131677
     12          1           0        0.175823    1.395578    2.131811
     13          8           0        0.005042   -3.002341   -0.003055
     14          6           0        0.006779   -4.205827   -0.001506
     15          1           0        0.958223   -4.755313   -0.079981
     16          1           0       -0.943196   -4.757855    0.076896
     17          1           0        2.074764   -0.475181   -0.172946
     18          7           0        3.064740   -0.648945   -0.252919
     19          6           0        3.813240   -0.763744    0.867315
     20          8           0        5.014695   -0.973518    0.849229
     21          6           0        3.718990   -0.781152   -1.542759
     22          1           0        4.780815   -0.964558   -1.417136
     23          1           0        3.293364   -1.613115   -2.108071
     24          1           0        3.597341    0.130086   -2.132587
     25          1           0        3.233615   -0.649638    1.794903
     26          1           0       -2.068931   -0.480313    0.168931
     27          7           0       -3.058164   -0.656724    0.252254
     28          6           0       -3.810193   -0.773173   -0.865419
     29          8           0       -5.011039   -0.986139   -0.843267
     30          6           0       -3.707614   -0.791045    1.544276
     31          1           0       -4.769377   -0.977228    1.422247
     32          1           0       -3.277842   -1.622050    2.107869
     33          1           0       -3.586352    0.120339    2.133962
     34          1           0       -3.234064   -0.657255   -1.794960
 ---------------------------------------------------------------------

 The electronic state is 1-A.
 Alpha  occ. eigenvalues --  -25.28367 -19.64705 -19.59627 -19.59619 -14.77597
 Alpha  occ. eigenvalues --  -14.77588 -10.64839 -10.64340 -10.64332 -10.64086
 Alpha  occ. eigenvalues --  -10.56634 -10.56632 -10.56456 -10.56448 -10.56428
 Alpha  occ. eigenvalues --  -10.56423 -10.55718  -1.40082  -1.19428  -1.16652
 Alpha  occ. eigenvalues --   -1.16644  -1.03292  -1.03278  -0.98699  -0.86969
 Alpha  occ. eigenvalues --   -0.86627  -0.80737  -0.80727  -0.72645  -0.72494
 Alpha  occ. eigenvalues --   -0.72073  -0.68282  -0.67949  -0.64866  -0.63227
 Alpha  occ. eigenvalues --   -0.62837  -0.59573  -0.59464  -0.58794  -0.58526
 Alpha  occ. eigenvalues --   -0.54149  -0.54085  -0.54005  -0.53052  -0.52669
 Alpha  occ. eigenvalues --   -0.52652  -0.51212  -0.50301  -0.49263  -0.49139
 Alpha  occ. eigenvalues --   -0.47926  -0.45735  -0.45676  -0.45668  -0.45613
 Alpha  occ. eigenvalues --   -0.45341  -0.44500  -0.42279  -0.35032  -0.34310
 Alpha  occ. eigenvalues --   -0.34290  -0.33117  -0.32609  -0.32242  -0.31898
 Alpha virt. eigenvalues --   -0.01058  -0.00934  -0.00280   0.00051   0.00171
 Alpha virt. eigenvalues --    0.00408   0.01099   0.01600   0.01968   0.02258
 Alpha virt. eigenvalues --    0.02572   0.03234   0.03379   0.03868   0.04082

 Mulliken charges:
               1
     1  C   -0.642234
     2  C    0.145446
     3  C   -0.179726
     4  C   -0.459759
     5  C   -0.153417
     6  C    0.158263
     7  F   -0.055097
     8  H    0.256362
     9  H    0.250148
    10  H    0.211530
    11  H    0.251258
    12  H    0.250977
    13  O   -0.246521
    14  C    0.041051
    15  H    0.130792
    16  H    0.130644
    17  H    0.238160
    18  N   -0.143576
    19  C    0.099930
    20  O   -0.466218
    21  C   -0.469509
    22  H    0.195586
    23  H    0.183261
    24  H    0.172979
    25  H    0.145641
    26  H    0.233318
    27  N   -0.144187
    28  C    0.103400
    29  O   -0.466280
    30  C   -0.470100
    31  H    0.195403
    32  H    0.183837
    33  H    0.173128
    34  H    0.145512
 Sum of Mulliken charges =  -0.00000

 Dipole moment (field-independent basis, Debye):
    X=              0.0340    Y=              1.1921    Z=             -0.0153  Tot=              1.1927
 Quadrupole moment (field-independent basis, Debye-Ang):
   XX=           -175.7340   YY=            -72.5432   ZZ=            -90.1366
   XY=             -0.1031   XZ=            -18.5221   YZ=             -0.0249

 Normal termination of Gaussian 16 at Sun Mar 24 03:20:29 2024.
