 Gaussian 16, Revision B.01,
 Gaussian 16:  ES64L-G16RevB.01 20-Dec-2017

 ----------------------------------------------------------------
 # m062x 6-311++G(d,p) opt=z-matrix scrf=(solvent=dichloroethane)
 ----------------------------------------------------------------

 ----
 test
 ----
 Symbolic Z-matrix:
 Charge =  0 Multiplicity = 1

 SCF Done:  E(RM062X) =  -546.290050961     A.U. after   13 cycles
 SCF Done:  E(RM062X) =  -546.366228979     A.U. after   13 cycles
 SCF Done:  E(RM062X) =  -546.387275943     A.U. after   12 cycles
 SCF Done:  E(RM062X) =  -546.387775567     A.U. after   10 cycles
 SCF Done:  E(RM062X) =  -546.388889699     A.U. after   12 cycles
 SCF Done:  E(RM062X) =  -546.388944187     A.U. after   11 cycles
 SCF Done:  E(RM062X) =  -546.389000110     A.U. after   10 cycles
 SCF Done:  E(RM062X) =  -546.389009556     A.U. after    9 cycles
 SCF Done:  E(RM062X) =  -546.389022298     A.U. after   10 cycles
 SCF Done:  E(RM062X) =  -546.389033671     A.U. after    9 cycles
 SCF Done:  E(RM062X) =  -546.389044327     A.U. after    9 cycles
 SCF Done:  E(RM062X) =  -546.389049733     A.U. after    9 cycles
 SCF Done:  E(RM062X) =  -546.389059227     A.U. after   10 cycles
 SCF Done:  E(RM062X) =  -546.389063332     A.U. after    9 cycles
 SCF Done:  E(RM062X) =  -546.389063810     A.U. after    8 cycles
 Optimization completed.
    -- Stationary point found.

                         Standard orientation:
 ---------------------------------------------------------------------
 Center     Atomic      Atomic             Coordinates (Angstroms)
 Number     Number       Type             X           Y           Z
 ---------------------------------------------------------------------
      1          6           0       -0.748139   -0.319891   -0.012489
      2          6           0       -1.436490   -0.271592   -1.205014
      3          6           0       -2.818463   -0.218521   -1.204078
      4          6           0       -3.511600   -0.213918   -0.002433
      5          6           0       -2.814322   -0.262844    1.205557
      6          6           0       -1.415995   -0.316543    1.204610
      7          9           0        0.611370   -0.372099   -0.013409
      8          1           0       -0.894873   -0.275188   -2.143980
      9          1           0       -3.359363   -0.180568   -2.141154
     10          1           0       -4.593810   -0.172359   -0.001700
     11          1           0       -3.355235   -0.259252    2.143302
     12          1           0       -0.854916   -0.355064    2.130388
     13          8           0        4.024726   -0.503289   -0.009761
     14          6           0        5.227814   -0.549556   -0.006972
     15          1           0        5.814489    0.381912    0.010995
     16          1           0        5.741319   -1.523341   -0.023924
     17          1           0        1.003656    1.442061    0.019849
     18          9           0        0.877974    2.359354    0.036657
 ---------------------------------------------------------------------

 The electronic state is 1-A.
 Alpha  occ. eigenvalues --  -25.28078 -25.22704 -19.64567 -10.64326 -10.63909
 Alpha  occ. eigenvalues --  -10.56300 -10.56194 -10.56029 -10.55926 -10.55421
 Alpha  occ. eigenvalues --   -1.39715  -1.33739  -1.19276  -0.98339  -0.86612
 Alpha  occ. eigenvalues --   -0.86218  -0.72298  -0.72151  -0.71834  -0.65125
 Alpha  occ. eigenvalues --   -0.64202  -0.59147  -0.58488  -0.58337  -0.58320
 Alpha  occ. eigenvalues --   -0.53943  -0.52643  -0.51203  -0.51125  -0.50887
 Alpha  occ. eigenvalues --   -0.49908  -0.47780  -0.45168  -0.44146  -0.41973
 Alpha  occ. eigenvalues --   -0.34870  -0.32724  -0.31914
 Alpha virt. eigenvalues --   -0.00780  -0.00160   0.00224   0.00753   0.01082
 Alpha virt. eigenvalues --    0.01427   0.01953   0.02717   0.03396   0.03732
 Alpha virt. eigenvalues --    0.04765   0.06365   0.06721   0.07553   0.07679

 Mulliken charges:
               1
     1  C   -0.507741
     2  C    0.094349
     3  C   -0.236011
     4  C   -0.232110
     5  C   -0.245030
     6  C    0.077136
     7  F   -0.141412
     8  H    0.248109
     9  H    0.237830
    10  H    0.223764
    11  H    0.238536
    12  H    0.249232
    13  O   -0.296037
    14  C    0.033921
    15  H    0.136667
    16  H    0.133442
    17  H    0.261427
    18  F   -0.276071
 Sum of Mulliken charges =  -0.00000

 Dipole moment (field-independent basis, Debye):
    X=              0.6818    Y=             -2.4428    Z=             -0.0506  Tot=              2.5367
 Quadrupole moment (field-independent basis, Debye-Ang):
   XX=            -21.3431   YY=            -68.7681   ZZ=            -50.4875
   XY=             -3.3366   XZ=              0.0983   YZ=             -0.3237

 Normal termination of Gaussian 16 at Mon Jan  6 19:24:53 2025.
