 Gaussian 16, Revision B.01,
 Gaussian 16:  ES64L-G16RevB.01 20-Dec-2017

 ----------------------------------------------------------------
 # m062x 6-311++G(d,p) opt=z-matrix scrf=(solvent=dichloroethane)
 ----------------------------------------------------------------

 ----
 test
 ----
 Symbolic Z-matrix:
 Charge =  0 Multiplicity = 1

 SCF Done:  E(RM062X) =  -646.742440945     A.U. after   13 cycles
 SCF Done:  E(RM062X) =  -646.818665311     A.U. after   13 cycles
 SCF Done:  E(RM062X) =  -646.839812377     A.U. after   12 cycles
 SCF Done:  E(RM062X) =  -646.840584619     A.U. after   10 cycles
 SCF Done:  E(RM062X) =  -646.842203261     A.U. after   11 cycles
 SCF Done:  E(RM062X) =  -646.842261691     A.U. after   11 cycles
 SCF Done:  E(RM062X) =  -646.842366167     A.U. after    9 cycles
 SCF Done:  E(RM062X) =  -646.842420519     A.U. after    9 cycles
 SCF Done:  E(RM062X) =  -646.842454315     A.U. after   11 cycles
 SCF Done:  E(RM062X) =  -646.842467506     A.U. after    9 cycles
 SCF Done:  E(RM062X) =  -646.842468415     A.U. after    8 cycles
 Optimization completed.
    -- Stationary point found.

                         Standard orientation:
 ---------------------------------------------------------------------
 Center     Atomic      Atomic             Coordinates (Angstroms)
 Number     Number       Type             X           Y           Z
 ---------------------------------------------------------------------
      1          6           0       -0.006267   -0.699385   -0.000000
      2          6           0       -1.197458   -1.387119   -0.000000
      3          6           0       -1.197458   -2.768619   -0.000000
      4          6           0        0.003137   -3.461783   -0.000000
      5          6           0        1.212305   -2.763670   -0.000000
      6          6           0        1.212305   -1.363275    0.000000
      7          9           0       -0.006267    0.674697    0.000000
      8          1           0       -2.136374   -0.845036   -0.000000
      9          1           0       -2.134940   -3.309874   -0.000000
     10          1           0        0.003137   -4.544730   -0.000000
     11          1           0        2.149709   -3.304880    0.000000
     12          1           0        2.136752   -0.798591    0.000000
     13          8           0       -0.001598    3.349862    0.000000
     14          6           0        0.001893    4.554398    0.000000
     15          1           0        0.002748    5.104730    0.953205
     16          1           0        0.002748    5.104730   -0.953205
     17          1           0       -0.006267    0.997630    1.831448
     18          9           0       -0.006267    0.836886    2.743076
     19          1           0       -0.006267    0.997630   -1.831448
     20          9           0       -0.006267    0.836886   -2.743076
 ---------------------------------------------------------------------

 The electronic state is 1-A'.
 Alpha  occ. eigenvalues --  -25.29659 -25.22810 -25.22810 -19.64751 -10.64849
 Alpha  occ. eigenvalues --  -10.64061 -10.56799 -10.56532 -10.56480 -10.56223
 Alpha  occ. eigenvalues --  -10.55769  -1.40997  -1.33888  -1.33810  -1.19429
 Alpha  occ. eigenvalues --   -0.98817  -0.87003  -0.86759  -0.72962  -0.72594
 Alpha  occ. eigenvalues --   -0.72061  -0.66331  -0.65275  -0.63556  -0.60011
 Alpha  occ. eigenvalues --   -0.58926  -0.58800  -0.58475  -0.54070  -0.52906
 Alpha  occ. eigenvalues --   -0.51611  -0.51256  -0.51244  -0.51214  -0.51140
 Alpha  occ. eigenvalues --   -0.50603  -0.47929  -0.45704  -0.44486  -0.42403
 Alpha  occ. eigenvalues --   -0.35075  -0.33041  -0.32530
 Alpha virt. eigenvalues --   -0.00940  -0.00284  -0.00081   0.00541   0.00731
 Alpha virt. eigenvalues --    0.01335   0.02091   0.02117   0.03298   0.03578
 Alpha virt. eigenvalues --    0.04706   0.05782   0.07009   0.07698   0.07787

 Mulliken charges:
               1
     1  C   -0.697041
     2  C    0.089782
     3  C   -0.184907
     4  C   -0.206050
     5  C   -0.201379
     6  C    0.087273
     7  F   -0.099597
     8  H    0.233813
     9  H    0.242614
    10  H    0.215595
    11  H    0.243738
    12  H    0.235300
    13  O   -0.272856
    14  C    0.015564
    15  H    0.143650
    16  H    0.143650
    17  H    0.276815
    18  F   -0.271390
    19  H    0.276815
    20  F   -0.271390
 Sum of Mulliken charges =  -0.00000

 Dipole moment (field-independent basis, Debye):
    X=             -0.0053    Y=              0.7713    Z=             -0.0000  Tot=              0.7713
 Quadrupole moment (field-independent basis, Debye-Ang):
   XX=            -55.8916   YY=            -28.9261   ZZ=            -85.8678
   XY=              0.1571   XZ=             -0.0000   YZ=              0.0000

 Normal termination of Gaussian 16 at Mon Jan  6 19:12:04 2025.
