 Gaussian 16, Revision B.01,
 Gaussian 16:  ES64L-G16RevB.01 20-Dec-2017

 ----------------------------------------------------------------------
 # m062x 6-311++G(d,p) opt=(maxcyc=50,z-matrix) scrf=(solvent=chlorofor
 m)
 ----------------------------------------------------------------------

 ----
 test
 ----
 Symbolic Z-matrix:
 Charge =  0 Multiplicity = 1

 SCF Done:  E(RM062X) =  -906.447134368     A.U. after   14 cycles
 SCF Done:  E(RM062X) =  -906.627824416     A.U. after   13 cycles
 SCF Done:  E(RM062X) =  -906.732686409     A.U. after   13 cycles
 SCF Done:  E(RM062X) =  -906.735528877     A.U. after   12 cycles
 SCF Done:  E(RM062X) =  -906.736314889     A.U. after   12 cycles
 SCF Done:  E(RM062X) =  -906.736562750     A.U. after   14 cycles
 SCF Done:  E(RM062X) =  -906.736247646     A.U. after   11 cycles
 SCF Done:  E(RM062X) =  -906.736694828     A.U. after   12 cycles
 SCF Done:  E(RM062X) =  -906.736716288     A.U. after   10 cycles
 SCF Done:  E(RM062X) =  -906.736282650     A.U. after   12 cycles
 SCF Done:  E(RM062X) =  -906.736886247     A.U. after    5 cycles
 SCF Done:  E(RM062X) =  -906.736886964     A.U. after    7 cycles
 SCF Done:  E(RM062X) =  -906.734083454     A.U. after   12 cycles
 SCF Done:  E(RM062X) =  -906.736832126     A.U. after   12 cycles
 SCF Done:  E(RM062X) =  -906.736887310     A.U. after    6 cycles
 SCF Done:  E(RM062X) =  -906.736887969     A.U. after    9 cycles
 SCF Done:  E(RM062X) =  -906.736866165     A.U. after   11 cycles
 SCF Done:  E(RM062X) =  -906.736888067     A.U. after    7 cycles
 SCF Done:  E(RM062X) =  -906.736886271     A.U. after   10 cycles
 SCF Done:  E(RM062X) =  -906.736888032     A.U. after   10 cycles
 Optimization completed.
    -- Stationary point found.

                         Standard orientation:
 ---------------------------------------------------------------------
 Center     Atomic      Atomic             Coordinates (Angstroms)
 Number     Number       Type             X           Y           Z
 ---------------------------------------------------------------------
      1          6           0       -0.869049   -0.622027   -0.007856
      2          6           0       -1.556126   -0.561297   -1.201772
      3          6           0       -2.935193   -0.447792   -1.201398
      4          6           0       -3.626642   -0.395089    0.000422
      5          6           0       -2.931306   -0.456549    1.208691
      6          6           0       -1.537509   -0.571266    1.208313
      7          9           0        0.479585   -0.733027   -0.008222
      8          1           0       -1.015961   -0.602469   -2.140642
      9          1           0       -3.474719   -0.400104   -2.138921
     10          1           0       -4.706070   -0.306246    0.000715
     11          1           0       -3.470830   -0.415426    2.146446
     12          1           0       -0.979554   -0.620435    2.135496
     13          8           0        3.959495   -1.019463   -0.003072
     14          6           0        5.158444   -1.118156    0.000216
     15          1           0        5.785566   -0.212658    0.004279
     16          1           0        5.629097   -2.114062   -0.002377
     17          1           0        1.002446    1.259259   -0.001241
     18         17           0        0.883652    2.541068    0.003243
 ---------------------------------------------------------------------

 The electronic state is 1-A.
 Alpha  occ. eigenvalues -- -102.67347 -25.27114 -19.64497 -10.63970 -10.63882
 Alpha  occ. eigenvalues --  -10.56060 -10.55977 -10.55820 -10.55726 -10.55243
 Alpha  occ. eigenvalues --   -9.81667  -7.54152  -7.53532  -7.53532  -1.38902
 Alpha  occ. eigenvalues --   -1.19242  -0.98056  -0.93617  -0.86393  -0.85895
 Alpha  occ. eigenvalues --   -0.72289  -0.71907  -0.71403  -0.64118  -0.59375
 Alpha  occ. eigenvalues --   -0.58653  -0.58341  -0.58114  -0.53847  -0.52506
 Alpha  occ. eigenvalues --   -0.52101  -0.50696  -0.49430  -0.47715  -0.44846
 Alpha  occ. eigenvalues --   -0.43969  -0.41740  -0.39406  -0.39391  -0.34792
 Alpha  occ. eigenvalues --   -0.32513  -0.31517
 Alpha virt. eigenvalues --   -0.00784  -0.00088   0.00396   0.00691   0.01287
 Alpha virt. eigenvalues --    0.01401   0.01893   0.02561   0.03394   0.03645
 Alpha virt. eigenvalues --    0.04303   0.06116   0.06575   0.07046   0.07461

 Mulliken charges:
               1
     1  C   -0.899365
     2  C    0.466429
     3  C   -0.515553
     4  C   -0.019999
     5  C   -0.517679
     6  C    0.438377
     7  F   -0.139060
     8  H    0.253455
     9  H    0.227384
    10  H    0.219882
    11  H    0.228155
    12  H    0.254529
    13  O   -0.283416
    14  C    0.037342
    15  H    0.129584
    16  H    0.127500
    17  H    0.115125
    18  Cl  -0.122688
 Sum of Mulliken charges =  -0.00000

 Dipole moment (field-independent basis, Debye):
    X=              0.7477    Y=             -1.8884    Z=             -0.0106  Tot=              2.0310
 Quadrupole moment (field-independent basis, Debye-Ang):
   XX=            -31.6697   YY=            -73.4090   ZZ=            -59.2454
   XY=             -4.9651   XZ=              0.1305   YZ=             -0.0491

 Normal termination of Gaussian 16 at Tue Apr  2 10:01:20 2024.
