 Gaussian 16, Revision B.01,
 Gaussian 16:  ES64L-G16RevB.01 20-Dec-2017

 ------------------------------------------------------------
 # m062x 6-311++G(d,p) opt=z-matrix scrf=(solvent=chloroform)
 ------------------------------------------------------------

 ----
 test
 ----
 Symbolic Z-matrix:
 Charge =  0 Multiplicity = 1

 SCF Done:  E(RM062X) =  -1367.05871500     A.U. after   14 cycles
 SCF Done:  E(RM062X) =  -1367.31850778     A.U. after   13 cycles
 SCF Done:  E(RM062X) =  -1367.52122894     A.U. after   14 cycles
 SCF Done:  E(RM062X) =  -1367.53699830     A.U. after   12 cycles
 SCF Done:  E(RM062X) =  -1367.53723235     A.U. after   12 cycles
 SCF Done:  E(RM062X) =  -1367.53907117     A.U. after   11 cycles
 SCF Done:  E(RM062X) =  -1367.53945839     A.U. after   12 cycles
 SCF Done:  E(RM062X) =  -1367.53987111     A.U. after   11 cycles
 SCF Done:  E(RM062X) =  -1367.53989218     A.U. after    9 cycles
 SCF Done:  E(RM062X) =  -1367.53903579     A.U. after   11 cycles
 SCF Done:  E(RM062X) =  -1367.53989331     A.U. after   11 cycles
 SCF Done:  E(RM062X) =  -1367.53993415     A.U. after   10 cycles
 SCF Done:  E(RM062X) =  -1367.53994626     A.U. after   10 cycles
 SCF Done:  E(RM062X) =  -1367.53995301     A.U. after    9 cycles
 SCF Done:  E(RM062X) =  -1367.53996209     A.U. after    9 cycles
 SCF Done:  E(RM062X) =  -1367.53996893     A.U. after    9 cycles
 SCF Done:  E(RM062X) =  -1367.53997054     A.U. after    8 cycles
 SCF Done:  E(RM062X) =  -1367.53997095     A.U. after    7 cycles
 Optimization completed.
    -- Stationary point found.

                         Standard orientation:
 ---------------------------------------------------------------------
 Center     Atomic      Atomic             Coordinates (Angstroms)
 Number     Number       Type             X           Y           Z
 ---------------------------------------------------------------------
      1          6           0       -0.004811   -0.829664    0.000000
      2          6           0       -1.197677   -1.518365    0.000000
      3          6           0       -1.197677   -2.901110    0.000000
      4          6           0        0.003460   -3.594587    0.000000
      5          6           0        1.212192   -2.896725    0.000000
      6          6           0        1.212192   -1.497618    0.000000
      7          9           0       -0.004811    0.531657   -0.000000
      8          1           0       -2.136546   -0.976309   -0.000000
      9          1           0       -2.135268   -3.442428    0.000000
     10          1           0        0.003460   -4.677611    0.000000
     11          1           0        2.149715   -3.438004    0.000000
     12          1           0        2.138443   -0.935782    0.000000
     13          8           0        0.000051    3.317735   -0.000000
     14          6           0        0.003563    4.521122   -0.000000
     15          1           0        0.004425    5.071844    0.953881
     16          1           0        0.004425    5.071844   -0.953881
     17          1           0       -0.004811    0.886122    2.010275
     18         17           0       -0.004811    0.662620    3.277818
     19          1           0       -0.004811    0.886122   -2.010275
     20         17           0       -0.004811    0.662620   -3.277818
 ---------------------------------------------------------------------

 The electronic state is 1-A'.
 Alpha  occ. eigenvalues -- -102.67404-102.67404 -25.28149 -19.64624 -10.64315
 Alpha  occ. eigenvalues --  -10.63989 -10.56374 -10.56252 -10.56099 -10.55983
 Alpha  occ. eigenvalues --  -10.55492  -9.81727  -9.81727  -7.54211  -7.54211
 Alpha  occ. eigenvalues --   -7.53593  -7.53593  -7.53593  -7.53593  -1.39732
 Alpha  occ. eigenvalues --   -1.19348  -0.98381  -0.93704  -0.93658  -0.86666
 Alpha  occ. eigenvalues --   -0.86262  -0.72555  -0.72218  -0.71709  -0.64537
 Alpha  occ. eigenvalues --   -0.61019  -0.59202  -0.58492  -0.58437  -0.53957
 Alpha  occ. eigenvalues --   -0.52928  -0.52604  -0.51668  -0.51018  -0.49984
 Alpha  occ. eigenvalues --   -0.47821  -0.45242  -0.44206  -0.42052  -0.39482
 Alpha  occ. eigenvalues --   -0.39480  -0.39458  -0.39449  -0.34921  -0.32731
 Alpha  occ. eigenvalues --   -0.31932
 Alpha virt. eigenvalues --   -0.00908  -0.00230   0.00162   0.00666   0.00834
 Alpha virt. eigenvalues --    0.01313   0.01988   0.02010   0.03285   0.03328
 Alpha virt. eigenvalues --    0.04152   0.05133   0.06645   0.06759   0.07507

 Mulliken charges:
               1
     1  C   -0.467811
     2  C    0.027395
     3  C   -0.168144
     4  C   -0.307759
     5  C   -0.182245
     6  C    0.024024
     7  F   -0.107036
     8  H    0.229030
     9  H    0.240798
    10  H    0.203283
    11  H    0.241670
    12  H    0.230379
    13  O   -0.267037
    14  C    0.037018
    15  H    0.131222
    16  H    0.131222
    17  H    0.124562
    18  Cl  -0.122566
    19  H    0.124562
    20  Cl  -0.122566
 Sum of Mulliken charges =  -0.00000

 Dipole moment (field-independent basis, Debye):
    X=             -0.0041    Y=              0.9366    Z=             -0.0000  Tot=              0.9366
 Quadrupole moment (field-independent basis, Debye-Ang):
   XX=            -73.2205   YY=            -47.7103   ZZ=            -97.5177
   XY=              0.1427   XZ=              0.0000   YZ=              0.0000

 Normal termination of Gaussian 16 at Mon Apr  1 14:35:39 2024.
