 Gaussian 16, Revision B.01,
 Gaussian 16:  ES64L-G16RevB.01 20-Dec-2017

 ----------------------------------------------------------------
 # m062x 6-311++G(d,p) opt=z-matrix scrf=(solvent=dichloroethane)
 ----------------------------------------------------------------

 ----
 test
 ----
 Symbolic Z-matrix:
 Charge =  0 Multiplicity = 1

 SCF Done:  E(RM062X) =  -1367.06018952     A.U. after   14 cycles
 SCF Done:  E(RM062X) =  -1367.32004402     A.U. after   13 cycles
 SCF Done:  E(RM062X) =  -1367.52289319     A.U. after   14 cycles
 SCF Done:  E(RM062X) =  -1367.53870722     A.U. after   12 cycles
 SCF Done:  E(RM062X) =  -1367.53892239     A.U. after   11 cycles
 SCF Done:  E(RM062X) =  -1367.54077416     A.U. after   11 cycles
 SCF Done:  E(RM062X) =  -1367.54112708     A.U. after   12 cycles
 SCF Done:  E(RM062X) =  -1367.54160040     A.U. after   11 cycles
 SCF Done:  E(RM062X) =  -1367.54162140     A.U. after    9 cycles
 SCF Done:  E(RM062X) =  -1367.54058347     A.U. after   11 cycles
 SCF Done:  E(RM062X) =  -1367.54165451     A.U. after    7 cycles
 SCF Done:  E(RM062X) =  -1367.54165560     A.U. after    8 cycles
 SCF Done:  E(RM062X) =  -1367.54166016     A.U. after    8 cycles
 SCF Done:  E(RM062X) =  -1367.54112700     A.U. after   11 cycles
 SCF Done:  E(RM062X) =  -1367.54167180     A.U. after    8 cycles
 SCF Done:  E(RM062X) =  -1367.54160401     A.U. after    9 cycles
 SCF Done:  E(RM062X) =  -1367.54168248     A.U. after    7 cycles
 SCF Done:  E(RM062X) =  -1367.54168538     A.U. after    8 cycles
 SCF Done:  E(RM062X) =  -1367.54160333     A.U. after   10 cycles
 SCF Done:  E(RM062X) =  -1367.54168760     A.U. after    7 cycles
 Optimization completed.
    -- Stationary point found.

                         Standard orientation:
 ---------------------------------------------------------------------
 Center     Atomic      Atomic             Coordinates (Angstroms)
 Number     Number       Type             X           Y           Z
 ---------------------------------------------------------------------
      1          6           0       -0.004824   -0.834207   -0.000000
      2          6           0       -1.197868   -1.523011   -0.000000
      3          6           0       -1.197868   -2.905761   -0.000000
      4          6           0        0.003545   -3.599397   -0.000000
      5          6           0        1.212349   -2.901494   -0.000000
      6          6           0        1.212349   -1.501988   -0.000000
      7          9           0       -0.004824    0.527479    0.000000
      8          1           0       -2.136735   -0.980956   -0.000000
      9          1           0       -2.135432   -3.447064   -0.000000
     10          1           0        0.003545   -4.682384   -0.000000
     11          1           0        2.149848   -3.442759   -0.000000
     12          1           0        2.138503   -0.939997   -0.000000
     13          8           0        0.000086    3.340703    0.000000
     14          6           0        0.003604    4.544887    0.000000
     15          1           0        0.004466    5.095376    0.953476
     16          1           0        0.004466    5.095376   -0.953476
     17          1           0       -0.004824    0.882163    2.011510
     18         17           0       -0.004824    0.658558    3.279638
     19          1           0       -0.004824    0.882163   -2.011510
     20         17           0       -0.004824    0.658558   -3.279638
 ---------------------------------------------------------------------

 The electronic state is 1-A'.
 Alpha  occ. eigenvalues -- -102.67647-102.67647 -25.28233 -19.64577 -10.64372
 Alpha  occ. eigenvalues --  -10.63912 -10.56404 -10.56267 -10.56125 -10.55995
 Alpha  occ. eigenvalues --  -10.55501  -9.81969  -9.81969  -7.54452  -7.54452
 Alpha  occ. eigenvalues --   -7.53836  -7.53836  -7.53835  -7.53835  -1.39802
 Alpha  occ. eigenvalues --   -1.19273  -0.98413  -0.93931  -0.93885  -0.86685
 Alpha  occ. eigenvalues --   -0.86292  -0.72470  -0.72230  -0.71727  -0.64558
 Alpha  occ. eigenvalues --   -0.61110  -0.59241  -0.58487  -0.58342  -0.53938
 Alpha  occ. eigenvalues --   -0.53103  -0.52620  -0.51870  -0.51022  -0.50013
 Alpha  occ. eigenvalues --   -0.47774  -0.45307  -0.44197  -0.42048  -0.39738
 Alpha  occ. eigenvalues --   -0.39727  -0.39704  -0.39702  -0.34879  -0.32781
 Alpha  occ. eigenvalues --   -0.31994
 Alpha virt. eigenvalues --   -0.00810  -0.00252   0.00117   0.00741   0.00770
 Alpha virt. eigenvalues --    0.01353   0.01942   0.02062   0.03323   0.03342
 Alpha virt. eigenvalues --    0.04138   0.05086   0.06640   0.06659   0.07414

 Mulliken charges:
               1
     1  C   -0.460222
     2  C    0.022501
     3  C   -0.175634
     4  C   -0.313852
     5  C   -0.189602
     6  C    0.018911
     7  F   -0.106187
     8  H    0.233285
     9  H    0.245858
    10  H    0.208345
    11  H    0.246688
    12  H    0.234595
    13  O   -0.276838
    14  C    0.039596
    15  H    0.134391
    16  H    0.134391
    17  H    0.127276
    18  Cl  -0.125389
    19  H    0.127276
    20  Cl  -0.125389
 Sum of Mulliken charges =  -0.00000

 Dipole moment (field-independent basis, Debye):
    X=             -0.0057    Y=              0.9664    Z=              0.0000  Tot=              0.9664
 Quadrupole moment (field-independent basis, Debye-Ang):
   XX=            -73.0757   YY=            -46.7121   ZZ=            -97.6826
   XY=              0.1500   XZ=              0.0000   YZ=             -0.0000

 Normal termination of Gaussian 16 at Mon Jan  6 19:40:15 2025.
