 Gaussian 16, Revision B.01,
 Gaussian 16:  ES64L-G16RevB.01 20-Dec-2017

 ----------------------------------------------------------------------
 # m062x 6-311++G(d,p) opt=(z-matrix,recalc=5) scrf=(solvent=dichloroet
 hane)
 ----------------------------------------------------------------------

 ----
 test
 ----
 Symbolic Z-matrix:
 Charge =  0 Multiplicity = 1

 SCF Done:  E(RM062X) =  -906.448792276     A.U. after   14 cycles
 SCF Done:  E(RM062X) =  -906.623795164     A.U. after   13 cycles
 SCF Done:  E(RM062X) =  -906.729021858     A.U. after   13 cycles
 SCF Done:  E(RM062X) =  -906.734190044     A.U. after   12 cycles
 SCF Done:  E(RM062X) =  -906.735066628     A.U. after   12 cycles
 SCF Done:  E(RM062X) =  -906.733884418     A.U. after   11 cycles
 SCF Done:  E(RM062X) =  -906.738190034     A.U. after   12 cycles
 SCF Done:  E(RM062X) =  -906.738557262     A.U. after   11 cycles
 SCF Done:  E(RM062X) =  -906.738712486     A.U. after   11 cycles
 SCF Done:  E(RM062X) =  -906.738724352     A.U. after   10 cycles
 SCF Done:  E(RM062X) =  -906.738726841     A.U. after    8 cycles
 SCF Done:  E(RM062X) =  -906.738727644     A.U. after    8 cycles
 SCF Done:  E(RM062X) =  -906.738727720     A.U. after    7 cycles
 SCF Done:  E(RM062X) =  -906.738727772     A.U. after    6 cycles
 Optimization completed.
    -- Stationary point found.

                         Standard orientation:
 ---------------------------------------------------------------------
 Center     Atomic      Atomic             Coordinates (Angstroms)
 Number     Number       Type             X           Y           Z
 ---------------------------------------------------------------------
      1          6           0       -0.877664   -0.623691   -0.007904
      2          6           0       -1.564926   -0.564438   -1.201900
      3          6           0       -2.944177   -0.453960   -1.201517
      4          6           0       -3.635842   -0.402789    0.000495
      5          6           0       -2.940321   -0.462754    1.208840
      6          6           0       -1.545878   -0.574449    1.208452
      7          9           0        0.472097   -0.731807   -0.008279
      8          1           0       -1.024659   -0.604409   -2.140806
      9          1           0       -3.483803   -0.407436   -2.139021
     10          1           0       -4.715443   -0.316313    0.000795
     11          1           0       -3.479921   -0.422832    2.146585
     12          1           0       -0.987532   -0.622436    2.135499
     13          8           0        4.001449   -1.014529   -0.003079
     14          6           0        5.201577   -1.110672    0.000209
     15          1           0        5.826419   -0.204230    0.004286
     16          1           0        5.674186   -2.105071   -0.002405
     17          1           0        0.991188    1.263911   -0.001252
     18         17           0        0.869558    2.545755    0.003259
 ---------------------------------------------------------------------

 The electronic state is 1-A.
 Alpha  occ. eigenvalues -- -102.67639 -25.27293 -19.64564 -10.64070 -10.63907
 Alpha  occ. eigenvalues --  -10.56109 -10.56034 -10.55864 -10.55781 -10.55277
 Alpha  occ. eigenvalues --   -9.81959  -7.54443  -7.53825  -7.53825  -1.39053
 Alpha  occ. eigenvalues --   -1.19273  -0.98123  -0.93899  -0.86442  -0.85965
 Alpha  occ. eigenvalues --   -0.72286  -0.71956  -0.71493  -0.64196  -0.59545
 Alpha  occ. eigenvalues --   -0.58750  -0.58335  -0.58156  -0.53947  -0.52563
 Alpha  occ. eigenvalues --   -0.52326  -0.50731  -0.49526  -0.47776  -0.44944
 Alpha  occ. eigenvalues --   -0.43989  -0.41774  -0.39701  -0.39698  -0.34866
 Alpha  occ. eigenvalues --   -0.32587  -0.31618
 Alpha virt. eigenvalues --   -0.00776  -0.00149   0.00327   0.00743   0.01210
 Alpha virt. eigenvalues --    0.01430   0.01929   0.02505   0.03407   0.03662
 Alpha virt. eigenvalues --    0.04249   0.06009   0.06550   0.06911   0.07474

 Mulliken charges:
               1
     1  C   -0.895177
     2  C    0.464753
     3  C   -0.522704
     4  C   -0.025944
     5  C   -0.524802
     6  C    0.436240
     7  F   -0.142458
     8  H    0.257757
     9  H    0.232539
    10  H    0.224866
    11  H    0.233276
    12  H    0.258832
    13  O   -0.294671
    14  C    0.038795
    15  H    0.133987
    16  H    0.132036
    17  H    0.117631
    18  Cl  -0.124955
 Sum of Mulliken charges =  -0.00000

 Dipole moment (field-independent basis, Debye):
    X=              0.7694    Y=             -1.9094    Z=             -0.0122  Tot=              2.0586
 Quadrupole moment (field-independent basis, Debye-Ang):
   XX=            -30.0989   YY=            -73.4587   ZZ=            -59.0837
   XY=             -4.9642   XZ=              0.1385   YZ=             -0.0496

  Exact polarizability:   0.000   0.000   0.000   0.000   0.000   0.000
 Approx polarizability: 137.571  -4.061  84.392   0.264  -0.156 119.551

 Normal termination of Gaussian 16 at Mon Jan  6 20:30:26 2025.
