 Gaussian 16, Revision B.01,
 Gaussian 16:  ES64L-G16RevB.01 20-Dec-2017

 ----------------------------------
 # m062x 6-311++G(d,p) opt=z-matrix
 ----------------------------------

 ----
 test
 ----
 Symbolic Z-matrix:
 Charge =  0 Multiplicity = 1

 SCF Done:  E(RM062X) =  -747.179555012     A.U. after   14 cycles
 SCF Done:  E(RM062X) =  -747.255287000     A.U. after   12 cycles
 SCF Done:  E(RM062X) =  -747.275866326     A.U. after   12 cycles
 SCF Done:  E(RM062X) =  -747.276498813     A.U. after   11 cycles
 SCF Done:  E(RM062X) =  -747.277637115     A.U. after   11 cycles
 SCF Done:  E(RM062X) =  -747.277748488     A.U. after   10 cycles
 SCF Done:  E(RM062X) =  -747.277762255     A.U. after   10 cycles
 SCF Done:  E(RM062X) =  -747.277766684     A.U. after    8 cycles
 SCF Done:  E(RM062X) =  -747.277767338     A.U. after    8 cycles
 SCF Done:  E(RM062X) =  -747.277767496     A.U. after    7 cycles
 Optimization completed.
    -- Stationary point found.

                         Standard orientation:
 ---------------------------------------------------------------------
 Center     Atomic      Atomic             Coordinates (Angstroms)
 Number     Number       Type             X           Y           Z
 ---------------------------------------------------------------------
      1          6           0       -0.790191    0.006664    0.010267
      2          6           0       -1.478836    1.199039   -0.002935
      3          6           0       -2.860658    1.198820   -0.008713
      4          6           0       -3.553521   -0.001581   -0.001220
      5          6           0       -2.856432   -1.208577    0.012144
      6          6           0       -1.459095   -1.208356    0.017987
      7          9           0        0.599714    0.006884    0.016079
      8          1           0       -0.937575    2.136786   -0.008788
      9          1           0       -3.401912    2.135991   -0.019089
     10          1           0       -4.636495   -0.001752   -0.005749
     11          1           0       -3.397410   -2.145835    0.017994
     12          1           0       -0.899210   -2.134023    0.028342
     13          8           0        3.190361    0.002771    0.026952
     14          6           0        4.391835   -0.000501    0.032006
     15          1           0        4.938927    0.006999    0.988788
     16          1           0        4.946939   -0.009526   -0.920199
     17          1           0        0.924259    0.023255    1.902705
     18          9           0        0.760391    0.031088    2.809810
     19          1           0        0.957301    1.734923   -1.000130
     20          9           0        0.798983    2.517378   -1.461638
     21          1           0        0.961488   -1.756758   -0.980433
     22          9           0        0.803377   -2.547046   -1.428282
 ---------------------------------------------------------------------

 The electronic state is 1-A.
 Alpha  occ. eigenvalues --  -25.30969 -25.22941 -25.22860 -25.21591 -19.66434
 Alpha  occ. eigenvalues --  -10.65912 -10.65666 -10.57397 -10.57187 -10.57136
 Alpha  occ. eigenvalues --  -10.56940 -10.56523  -1.41753  -1.34121  -1.34035
 Alpha  occ. eigenvalues --   -1.32712  -1.21232  -0.99540  -0.87730  -0.87581
 Alpha  occ. eigenvalues --   -0.74619  -0.73602  -0.73145  -0.66011  -0.65184
 Alpha  occ. eigenvalues --   -0.64552  -0.63485  -0.60451  -0.60338  -0.59738
 Alpha  occ. eigenvalues --   -0.59639  -0.55758  -0.54075  -0.53010  -0.52332
 Alpha  occ. eigenvalues --   -0.51218  -0.51143  -0.50916  -0.50170  -0.49893
 Alpha  occ. eigenvalues --   -0.49889  -0.49645  -0.46292  -0.45204  -0.43062
 Alpha  occ. eigenvalues --   -0.36753  -0.33542  -0.33210
 Alpha virt. eigenvalues --   -0.02811  -0.00814  -0.00538  -0.00197   0.00088
 Alpha virt. eigenvalues --    0.01106   0.01276   0.01807   0.02919   0.02938
 Alpha virt. eigenvalues --    0.04588   0.05578   0.06010   0.06388   0.07676

 Mulliken charges:
               1
     1  C   -0.232528
     2  C   -0.010147
     3  C   -0.242206
     4  C   -0.132920
     5  C   -0.251932
     6  C   -0.020460
     7  F   -0.179120
     8  H    0.203007
     9  H    0.217520
    10  H    0.194520
    11  H    0.218852
    12  H    0.202707
    13  O   -0.262482
    14  C    0.018214
    15  H    0.127235
    16  H    0.129580
    17  H    0.269214
    18  F   -0.249338
    19  H    0.232354
    20  F   -0.232612
    21  H    0.232329
    22  F   -0.231788
 Sum of Mulliken charges =  -0.00000

 Dipole moment (field-independent basis, Debye):
    X=              0.8492    Y=             -0.0106    Z=             -0.1253  Tot=              0.8585
 Quadrupole moment (field-independent basis, Debye-Ang):
   XX=            -37.1539   YY=            -75.9044   ZZ=            -86.0221
   XY=             -0.1072   XZ=              0.2031   YZ=             -0.1089

 1\1\GINC-R820\POpt\RM062X\6-311++G(d,p)\C7H10F4O1\ZJXU\17-Jun-2024\1\\
 # m062x 6-311++G(d,p) opt=z-matrix\\test\\0,1\C\C,1,d1\C,2,d2,1,120.\C
 ,3,d3,2,120.,1,0.,0\C,4,d4,3,120.,2,0.,0\C,5,d5,4,120.,3,0.,0\F,1,d6,2
 ,120.,3,180.,0\H,2,d7,3,120.,4,180.,0\H,3,d8,4,120.,5,180.,0\H,4,d9,5,
 120.,6,180.,0\H,5,d10,6,120.,1,180.,0\H,6,d11,1,120.,2,180.,0\O,7,d12,
 1,179.9,3,180.,0\C,13,d13,1,179.9,2,180.,0\H,14,d14,1,120.,2,90.,0\H,1
 4,d15,1,120.,2,-90.,0\H,7,d16,1,100.,2,90.,0\F,17,d17,7,160.,1,0.,0\H,
 7,d18,1,100.,2,-30.,0\F,19,d19,7,160.,1,0.,0\H,7,d20,1,100.,2,-150.,0\

 Normal termination of Gaussian 16 at Mon Jun 17 10:18:26 2024.
