 Gaussian 16, Revision B.01,
 Gaussian 16:  ES64L-G16RevB.01 20-Dec-2017

 ----------------------------------
 # m062x 6-311++G(d,p) opt=z-matrix
 ----------------------------------

 ----
 test
 ----
 Symbolic Z-matrix:
 Charge =  0 Multiplicity = 1

 SCF Done:  E(RM062X) =  -646.730651334     A.U. after   14 cycles
 SCF Done:  E(RM062X) =  -646.806476595     A.U. after   12 cycles
 SCF Done:  E(RM062X) =  -646.827477818     A.U. after   12 cycles
 SCF Done:  E(RM062X) =  -646.828285630     A.U. after   10 cycles
 SCF Done:  E(RM062X) =  -646.829724321     A.U. after   11 cycles
 SCF Done:  E(RM062X) =  -646.829766013     A.U. after   11 cycles
 SCF Done:  E(RM062X) =  -646.829845868     A.U. after   10 cycles
 SCF Done:  E(RM062X) =  -646.829891681     A.U. after   11 cycles
 SCF Done:  E(RM062X) =  -646.829896494     A.U. after    8 cycles
 SCF Done:  E(RM062X) =  -646.829897257     A.U. after    8 cycles
 Optimization completed.
    -- Stationary point found.

                         Standard orientation:
 ---------------------------------------------------------------------
 Center     Atomic      Atomic             Coordinates (Angstroms)
 Number     Number       Type             X           Y           Z
 ---------------------------------------------------------------------
      1          6           0       -0.005937   -0.690251    0.000000
      2          6           0       -1.197084   -1.377960   -0.000000
      3          6           0       -1.197084   -2.759022    0.000000
      4          6           0        0.002918   -3.451844    0.000000
      5          6           0        1.210872   -2.754431    0.000000
      6          6           0        1.210872   -1.355501    0.000000
      7          9           0       -0.005937    0.679243   -0.000000
      8          1           0       -2.135750   -0.836021   -0.000000
      9          1           0       -2.134585   -3.300289    0.000000
     10          1           0        0.002918   -4.534803    0.000000
     11          1           0        2.148279   -3.295644    0.000000
     12          1           0        2.135924   -0.792312    0.000000
     13          8           0       -0.001340    3.312937   -0.000000
     14          6           0        0.002133    4.513374   -0.000000
     15          1           0        0.002988    5.064703    0.954931
     16          1           0        0.002988    5.064703   -0.954931
     17          1           0       -0.005937    1.007559    1.861974
     18          9           0       -0.005937    0.847315    2.770762
     19          1           0       -0.005937    1.007559   -1.861974
     20          9           0       -0.005937    0.847315   -2.770762
 ---------------------------------------------------------------------

 The electronic state is 1-A'.
 Alpha  occ. eigenvalues --  -25.29316 -25.20854 -25.20854 -19.65523 -10.64995
 Alpha  occ. eigenvalues --  -10.64862 -10.56953 -10.56809 -10.56659 -10.56524
 Alpha  occ. eigenvalues --  -10.56070  -1.40758  -1.31997  -1.31939  -1.20346
 Alpha  occ. eigenvalues --   -0.98973  -0.87246  -0.86916  -0.73721  -0.72852
 Alpha  occ. eigenvalues --   -0.72454  -0.65362  -0.64839  -0.61728  -0.60033
 Alpha  occ. eigenvalues --   -0.59515  -0.59122  -0.58019  -0.54763  -0.53319
 Alpha  occ. eigenvalues --   -0.51764  -0.50803  -0.49198  -0.49196  -0.49184
 Alpha  occ. eigenvalues --   -0.49172  -0.48708  -0.45690  -0.44881  -0.42761
 Alpha  occ. eigenvalues --   -0.35829  -0.33149  -0.32510
 Alpha virt. eigenvalues --   -0.01945  -0.00492  -0.00180  -0.00014   0.00556
 Alpha virt. eigenvalues --    0.00880   0.01548   0.02221   0.02874   0.03235
 Alpha virt. eigenvalues --    0.04786   0.05916   0.06689   0.06970   0.08034

 Mulliken charges:
               1
     1  C   -0.706612
     2  C    0.108499
     3  C   -0.154225
     4  C   -0.167541
     5  C   -0.170737
     6  C    0.107131
     7  F   -0.106817
     8  H    0.206479
     9  H    0.214235
    10  H    0.189629
    11  H    0.215536
    12  H    0.207987
    13  O   -0.225702
    14  C    0.003337
    15  H    0.127147
    16  H    0.127147
    17  H    0.261310
    18  F   -0.249056
    19  H    0.261310
    20  F   -0.249056
 Sum of Mulliken charges =  -0.00000

 Dipole moment (field-independent basis, Debye):
    X=              0.0015    Y=              0.7547    Z=             -0.0000  Tot=              0.7547
 Quadrupole moment (field-independent basis, Debye-Ang):
   XX=            -56.7306   YY=            -33.8009   ZZ=            -84.9546
   XY=              0.1230   XZ=             -0.0000   YZ=             -0.0000

 Normal termination of Gaussian 16 at Thu Mar 28 13:26:54 2024.
