 Gaussian 16, Revision B.01,
 Gaussian 16:  ES64L-G16RevB.01 20-Dec-2017

 ----------------------------------------------------------------------
 # m062x 6-311++G(d,p) opt=(loose,z-matrix,recalc=5) scrf=(solvent=wate
 r)
 ----------------------------------------------------------------------

 ----
 test
 ----
 Symbolic Z-matrix:
 Charge =  0 Multiplicity = 1

 SCF Done:  E(RM062X) =  -906.450253700     A.U. after   14 cycles
 SCF Done:  E(RM062X) =  -906.625297304     A.U. after   13 cycles
 SCF Done:  E(RM062X) =  -906.730525951     A.U. after   13 cycles
 SCF Done:  E(RM062X) =  -906.735650547     A.U. after   12 cycles
 SCF Done:  E(RM062X) =  -906.737326028     A.U. after   12 cycles
 SCF Done:  E(RM062X) =  -906.735956788     A.U. after   11 cycles
 SCF Done:  E(RM062X) =  -906.739695299     A.U. after   14 cycles
 SCF Done:  E(RM062X) =  -906.740147068     A.U. after   11 cycles
 SCF Done:  E(RM062X) =  -906.740337132     A.U. after   11 cycles
 SCF Done:  E(RM062X) =  -906.740354050     A.U. after   10 cycles
 SCF Done:  E(RM062X) =  -906.740355262     A.U. after    9 cycles
 SCF Done:  E(RM062X) =  -906.740355390     A.U. after    8 cycles
 Optimization completed.
    -- Stationary point found.

                         Standard orientation:
 ---------------------------------------------------------------------
 Center     Atomic      Atomic             Coordinates (Angstroms)
 Number     Number       Type             X           Y           Z
 ---------------------------------------------------------------------
      1          6           0       -0.888852   -0.625472   -0.008013
      2          6           0       -1.576279   -0.568243   -1.201999
      3          6           0       -2.955909   -0.461931   -1.201617
      4          6           0       -3.647786   -0.412900    0.000491
      5          6           0       -2.951983   -0.470826    1.209025
      6          6           0       -1.556938   -0.578326    1.208638
      7          9           0        0.462013   -0.729567   -0.008388
      8          1           0       -1.035868   -0.606540   -2.140942
      9          1           0       -3.495668   -0.416996   -2.139119
     10          1           0       -4.727637   -0.329689    0.000790
     11          1           0       -3.491704   -0.432578    2.146769
     12          1           0       -0.998177   -0.624688    2.135560
     13          8           0        4.058152   -1.006703   -0.003089
     14          6           0        5.259409   -1.099283    0.000209
     15          1           0        5.881263   -0.191315    0.004330
     16          1           0        5.734834   -2.091855   -0.002444
     17          1           0        0.975194    1.268195   -0.001268
     18         17           0        0.849674    2.549829    0.003301
 ---------------------------------------------------------------------

 The electronic state is 1-A.
 Alpha  occ. eigenvalues -- -102.67885 -25.27464 -19.64638 -10.64170 -10.63944
 Alpha  occ. eigenvalues --  -10.56170 -10.56091 -10.55917 -10.55835 -10.55318
 Alpha  occ. eigenvalues --   -9.82205  -7.54688  -7.54073  -7.54071  -1.39199
 Alpha  occ. eigenvalues --   -1.19315  -0.98194  -0.94138  -0.86497  -0.86038
 Alpha  occ. eigenvalues --   -0.72296  -0.72009  -0.71585  -0.64276  -0.59709
 Alpha  occ. eigenvalues --   -0.58847  -0.58343  -0.58202  -0.54051  -0.52685
 Alpha  occ. eigenvalues --   -0.52451  -0.50772  -0.49621  -0.47844  -0.45043
 Alpha  occ. eigenvalues --   -0.44016  -0.41813  -0.39960  -0.39948  -0.34945
 Alpha  occ. eigenvalues --   -0.32664  -0.31718
 Alpha virt. eigenvalues --   -0.00781  -0.00233   0.00256   0.00773   0.01131
 Alpha virt. eigenvalues --    0.01448   0.01959   0.02443   0.03417   0.03668
 Alpha virt. eigenvalues --    0.04198   0.05894   0.06519   0.06788   0.07472

 Mulliken charges:
               1
     1  C   -0.893523
     2  C    0.464865
     3  C   -0.529761
     4  C   -0.030654
     5  C   -0.531832
     6  C    0.435779
     7  F   -0.145424
     8  H    0.261546
     9  H    0.237080
    10  H    0.229288
    11  H    0.237786
    12  H    0.262621
    13  O   -0.304310
    14  C    0.039645
    15  H    0.137848
    16  H    0.135982
    17  H    0.119542
    18  Cl  -0.126478
 Sum of Mulliken charges =  -0.00000

 Dipole moment (field-independent basis, Debye):
    X=              0.7906    Y=             -1.9280    Z=             -0.0137  Tot=              2.0838
 Quadrupole moment (field-independent basis, Debye-Ang):
   XX=            -28.5320   YY=            -73.5024   ZZ=            -58.9371
   XY=             -4.9018   XZ=              0.1464   YZ=             -0.0503

  Exact polarizability:   0.000   0.000   0.000   0.000   0.000   0.000
 Approx polarizability: 137.438  -3.892  84.369   0.267  -0.157 119.461

 Normal termination of Gaussian 16 at Wed Apr  3 15:55:05 2024.
