 Gaussian 16, Revision B.01,
 Gaussian 16:  ES64L-G16RevB.01 20-Dec-2017

 ----------------------------------------------------------------------
 # m062x 6-311++G(d,p) opt=(z-matrix,maxcyc=31,recalc=5,loose) scrf=(so
 lvent=water)
 ----------------------------------------------------------------------

 ----
 test
 ----
 Symbolic Z-matrix:
 Charge =  0 Multiplicity = 1

 SCF Done:  E(RM062X) =  -1827.66597853     A.U. after   14 cycles
 SCF Done:  E(RM062X) =  -1827.96990410     A.U. after   13 cycles
 SCF Done:  E(RM062X) =  -1828.03555328     A.U. after   13 cycles
 SCF Done:  E(RM062X) =  -1828.24090322     A.U. after   13 cycles
 SCF Done:  E(RM062X) =  -1828.28362075     A.U. after   13 cycles
 SCF Done:  E(RM062X) =  -1828.31760570     A.U. after   13 cycles
 SCF Done:  E(RM062X) =  -1828.32700390     A.U. after   12 cycles
 SCF Done:  E(RM062X) =  -1828.33448224     A.U. after   12 cycles
 SCF Done:  E(RM062X) =  -1828.33646185     A.U. after   12 cycles
 SCF Done:  E(RM062X) =  -1828.33888489     A.U. after   12 cycles
 SCF Done:  E(RM062X) =  -1828.34146151     A.U. after    9 cycles
 SCF Done:  E(RM062X) =  -1828.34178243     A.U. after   11 cycles
 SCF Done:  E(RM062X) =  -1828.34179651     A.U. after    9 cycles
 SCF Done:  E(RM062X) =  -1828.34180340     A.U. after    8 cycles
 SCF Done:  E(RM062X) =  -1828.34180899     A.U. after    8 cycles
 SCF Done:  E(RM062X) =  -1828.34181659     A.U. after   11 cycles
 SCF Done:  E(RM062X) =  -1828.34180677     A.U. after    8 cycles
 SCF Done:  E(RM062X) =  -1828.34183143     A.U. after    9 cycles
 SCF Done:  E(RM062X) =  -1828.34183582     A.U. after    9 cycles
 SCF Done:  E(RM062X) =  -1828.34185481     A.U. after    8 cycles
 Optimization completed.
    -- Stationary point found.

                         Standard orientation:
 ---------------------------------------------------------------------
 Center     Atomic      Atomic             Coordinates (Angstroms)
 Number     Number       Type             X           Y           Z
 ---------------------------------------------------------------------
      1          6           0       -1.049730    0.003964    0.046804
      2          6           0       -1.738725    1.199070    0.020071
      3          6           0       -3.121903    1.199489   -0.034259
      4          6           0       -3.815576   -0.002100   -0.061839
      5          6           0       -3.119142   -1.210109   -0.034817
      6          6           0       -1.722351   -1.210532    0.020048
      7          9           0        0.311144    0.003552    0.100259
      8          1           0       -1.197253    2.137013    0.041600
      9          1           0       -3.662519    2.137222   -0.055235
     10          1           0       -4.897701   -0.001772   -0.104344
     11          1           0       -3.660275   -2.147465   -0.056332
     12          1           0       -1.165267   -2.138302    0.041673
     13          8           0        3.711443   -0.003416    0.233819
     14          6           0        4.915392   -0.007385    0.281109
     15          1           0        5.427833   -0.008694    1.255075
     16          1           0        5.502650   -0.008168   -0.649662
     17          1           0        0.591852    0.002876    2.162701
     18         17           0        0.318775    0.002594    3.420481
     19          1           0        0.828405    2.288503   -1.198896
     20         17           0        0.630584    3.384730   -1.839618
     21          1           0        0.827075   -2.280951   -1.200213
     22         17           0        0.628615   -3.376693   -1.841566
 ---------------------------------------------------------------------

 The electronic state is 1-A.
 Alpha  occ. eigenvalues -- -102.68357-102.68347-102.67940 -25.28164 -19.64648
 Alpha  occ. eigenvalues --  -10.64599 -10.63948 -10.56488 -10.56338 -10.56262
 Alpha  occ. eigenvalues --  -10.56115 -10.55536  -9.82675  -9.82665  -9.82260
 Alpha  occ. eigenvalues --   -7.55170  -7.55160  -7.54744  -7.54533  -7.54530
 Alpha  occ. eigenvalues --   -7.54523  -7.54520  -7.54127  -7.54125  -1.39648
 Alpha  occ. eigenvalues --   -1.19315  -0.98524  -0.94610  -0.94593  -0.94188
 Alpha  occ. eigenvalues --   -0.86813  -0.86386  -0.72383  -0.72312  -0.71922
 Alpha  occ. eigenvalues --   -0.64627  -0.60163  -0.59370  -0.58699  -0.58345
 Alpha  occ. eigenvalues --   -0.54048  -0.53963  -0.53881  -0.52884  -0.52599
 Alpha  occ. eigenvalues --   -0.51045  -0.50181  -0.47846  -0.45385  -0.44338
 Alpha  occ. eigenvalues --   -0.42377  -0.40303  -0.40292  -0.40239  -0.40075
 Alpha  occ. eigenvalues --   -0.40000  -0.39970  -0.34946  -0.32906  -0.32069
 Alpha virt. eigenvalues --   -0.00826  -0.00822  -0.00050   0.00595   0.00769
 Alpha virt. eigenvalues --    0.00886   0.01611   0.01840   0.02682   0.03224
 Alpha virt. eigenvalues --    0.03970   0.04704   0.04862   0.06035   0.06202

 Mulliken charges:
               1
     1  C   -0.091631
     2  C    0.156038
     3  C   -0.355048
     4  C   -0.249761
     5  C   -0.353012
     6  C    0.151500
     7  F   -0.143081
     8  H    0.025603
     9  H    0.256056
    10  H    0.220161
    11  H    0.256969
    12  H    0.020154
    13  O   -0.296115
    14  C    0.035883
    15  H    0.136021
    16  H    0.137824
    17  H    0.137859
    18  Cl  -0.117194
    19  H    0.151859
    20  Cl  -0.116163
    21  H    0.151121
    22  Cl  -0.115044
 Sum of Mulliken charges =  -0.00000

 Dipole moment (field-independent basis, Debye):
    X=              1.2725    Y=              0.0028    Z=             -0.2185  Tot=              1.2912
 Quadrupole moment (field-independent basis, Debye-Ang):
   XX=            -55.9898   YY=            -99.5222   ZZ=           -108.5740
   XY=             -0.1582   XZ=              2.1079   YZ=              0.0085

  Exact polarizability:   0.000   0.000   0.000   0.000   0.000   0.000
 Approx polarizability: 161.784  -0.275 153.232   1.730   0.020 112.126

 Normal termination of Gaussian 16 at Wed Apr  3 18:32:32 2024.
