 Gaussian 16, Revision B.01,
 Gaussian 16:  ES64L-G16RevB.01 20-Dec-2017

 ------------------------------------------------------------
 # m062x 6-311++G(d,p) opt=z-matrix scrf=(solvent=chloroform)
 ------------------------------------------------------------

 ----
 test
 ----
 Symbolic Z-matrix:
 Charge =  0 Multiplicity = 1

 SCF Done:  E(RM062X) =  -546.288169945     A.U. after   13 cycles
 SCF Done:  E(RM062X) =  -546.364311447     A.U. after   13 cycles
 SCF Done:  E(RM062X) =  -546.385364671     A.U. after   13 cycles
 SCF Done:  E(RM062X) =  -546.385864745     A.U. after   10 cycles
 SCF Done:  E(RM062X) =  -546.386902180     A.U. after   12 cycles
 SCF Done:  E(RM062X) =  -546.386963232     A.U. after   11 cycles
 SCF Done:  E(RM062X) =  -546.387012723     A.U. after   10 cycles
 SCF Done:  E(RM062X) =  -546.387018008     A.U. after    9 cycles
 SCF Done:  E(RM062X) =  -546.387023378     A.U. after    9 cycles
 SCF Done:  E(RM062X) =  -546.387032574     A.U. after    9 cycles
 SCF Done:  E(RM062X) =  -546.387040579     A.U. after    9 cycles
 SCF Done:  E(RM062X) =  -546.387042316     A.U. after    9 cycles
 SCF Done:  E(RM062X) =  -546.387042386     A.U. after    7 cycles
 SCF Done:  E(RM062X) =  -546.387041773     A.U. after    8 cycles
 SCF Done:  E(RM062X) =  -546.387042417     A.U. after    8 cycles
 Optimization completed.
    -- Stationary point found.

                         Standard orientation:
 ---------------------------------------------------------------------
 Center     Atomic      Atomic             Coordinates (Angstroms)
 Number     Number       Type             X           Y           Z
 ---------------------------------------------------------------------
      1          6           0       -0.680574   -0.317093   -0.012205
      2          6           0       -1.368731   -0.263961   -1.204853
      3          6           0       -2.750301   -0.201048   -1.203835
      4          6           0       -3.443289   -0.191433   -0.002187
      5          6           0       -2.746460   -0.245234    1.205491
      6          6           0       -1.348883   -0.308876    1.204461
      7          9           0        0.677063   -0.378916   -0.013205
      8          1           0       -0.827239   -0.271474   -2.143805
      9          1           0       -3.290988   -0.159302   -2.140902
     10          1           0       -4.525195   -0.142166   -0.001390
     11          1           0       -3.287287   -0.237730    2.143289
     12          1           0       -0.788542   -0.351315    2.130466
     13          8           0        3.762519   -0.519517   -0.010088
     14          6           0        4.964342   -0.574310   -0.007416
     15          1           0        5.557896    0.353363    0.010454
     16          1           0        5.471126   -1.552169   -0.024354
     17          1           0        1.081202    1.427671    0.019827
     18          9           0        0.962076    2.345692    0.036581
 ---------------------------------------------------------------------

 The electronic state is 1-A.
 Alpha  occ. eigenvalues --  -25.27777 -25.22217 -19.64484 -10.64174 -10.63868
 Alpha  occ. eigenvalues --  -10.56206 -10.56124 -10.55946 -10.55862 -10.55366
 Alpha  occ. eigenvalues --   -1.39461  -1.33262  -1.19226  -0.98238  -0.86536
 Alpha  occ. eigenvalues --   -0.86107  -0.72319  -0.72070  -0.71650  -0.64819
 Alpha  occ. eigenvalues --   -0.63951  -0.58979  -0.58335  -0.58299  -0.58101
 Alpha  occ. eigenvalues --   -0.53805  -0.52590  -0.50925  -0.50632  -0.50610
 Alpha  occ. eigenvalues --   -0.49757  -0.47701  -0.45035  -0.44101  -0.41911
 Alpha  occ. eigenvalues --   -0.34784  -0.32629  -0.31774
 Alpha virt. eigenvalues --   -0.00784  -0.00069   0.00314   0.00719   0.01186
 Alpha virt. eigenvalues --    0.01390   0.02009   0.02748   0.03372   0.03801
 Alpha virt. eigenvalues --    0.04940   0.06591   0.06792   0.07621   0.07894

 Mulliken charges:
               1
     1  C   -0.493919
     2  C    0.070552
     3  C   -0.209222
     4  C   -0.237368
     5  C   -0.218971
     6  C    0.055123
     7  F   -0.128501
     8  H    0.240975
     9  H    0.232627
    10  H    0.218523
    11  H    0.233359
    12  H    0.242084
    13  O   -0.283461
    14  C    0.029732
    15  H    0.133877
    16  H    0.129736
    17  H    0.257024
    18  F   -0.272171
 Sum of Mulliken charges =  -0.00000

 Dipole moment (field-independent basis, Debye):
    X=              0.6901    Y=             -2.4230    Z=             -0.0487  Tot=              2.5198
 Quadrupole moment (field-independent basis, Debye-Ang):
   XX=            -24.6070   YY=            -68.6722   ZZ=            -50.6888
   XY=             -3.7385   XZ=              0.0798   YZ=             -0.3187

 Normal termination of Gaussian 16 at Fri Mar 29 19:20:15 2024.
