 Gaussian 16, Revision B.01,
 Gaussian 16:  ES64L-G16RevB.01 20-Dec-2017

 ------------------------------------------------------------
 # m062x 6-311++G(d,p) opt=z-matrix scrf=(solvent=chloroform)
 ------------------------------------------------------------

 ----
 test
 ----
 Symbolic Z-matrix:
 Charge =  0 Multiplicity = 1

 SCF Done:  E(RM062X) =  -646.740427426     A.U. after   14 cycles
 SCF Done:  E(RM062X) =  -646.816560729     A.U. after   13 cycles
 SCF Done:  E(RM062X) =  -646.837656359     A.U. after   12 cycles
 SCF Done:  E(RM062X) =  -646.838442634     A.U. after   10 cycles
 SCF Done:  E(RM062X) =  -646.840039667     A.U. after   11 cycles
 SCF Done:  E(RM062X) =  -646.840077911     A.U. after   11 cycles
 SCF Done:  E(RM062X) =  -646.840187543     A.U. after   10 cycles
 SCF Done:  E(RM062X) =  -646.840256526     A.U. after   11 cycles
 SCF Done:  E(RM062X) =  -646.840281311     A.U. after    9 cycles
 SCF Done:  E(RM062X) =  -646.840290043     A.U. after    8 cycles
 SCF Done:  E(RM062X) =  -646.840290367     A.U. after    8 cycles
 Optimization completed.
    -- Stationary point found.

                         Standard orientation:
 ---------------------------------------------------------------------
 Center     Atomic      Atomic             Coordinates (Angstroms)
 Number     Number       Type             X           Y           Z
 ---------------------------------------------------------------------
      1          6           0       -0.006199   -0.696842   -0.000000
      2          6           0       -1.197380   -1.384571   -0.000000
      3          6           0       -1.197380   -2.765953   -0.000000
      4          6           0        0.003103   -3.459052   -0.000000
      5          6           0        1.212012   -2.761088   -0.000000
      6          6           0        1.212012   -1.360987   -0.000000
      7          9           0       -0.006199    0.676561    0.000000
      8          1           0       -2.136258   -0.842509   -0.000000
      9          1           0       -2.134857   -3.307206   -0.000000
     10          1           0        0.003103   -4.542001   -0.000000
     11          1           0        2.149409   -3.302295   -0.000000
     12          1           0        2.136589   -0.796586   -0.000000
     13          8           0       -0.001552    3.338913    0.000000
     14          6           0        0.001935    4.542696    0.000000
     15          1           0        0.002789    5.093220    0.953537
     16          1           0        0.002789    5.093220   -0.953537
     17          1           0       -0.006199    1.000524    1.837283
     18          9           0       -0.006199    0.839863    2.748435
     19          1           0       -0.006199    1.000524   -1.837283
     20          9           0       -0.006199    0.839863   -2.748435
 ---------------------------------------------------------------------

 The electronic state is 1-A'.
 Alpha  occ. eigenvalues --  -25.29568 -25.22487 -25.22487 -19.64830 -10.64806
 Alpha  occ. eigenvalues --  -10.64170 -10.56782 -10.56535 -10.56468 -10.56232
 Alpha  occ. eigenvalues --  -10.55778  -1.40920  -1.33577  -1.33503  -1.19536
 Alpha  occ. eigenvalues --   -0.98799  -0.87002  -0.86744  -0.73022  -0.72599
 Alpha  occ. eigenvalues --   -0.72109  -0.66056  -0.65240  -0.63266  -0.59978
 Alpha  occ. eigenvalues --   -0.58823  -0.58771  -0.58599  -0.54140  -0.52937
 Alpha  occ. eigenvalues --   -0.51566  -0.50916  -0.50909  -0.50877  -0.50862
 Alpha  occ. eigenvalues --   -0.50590  -0.48012  -0.45652  -0.44515  -0.42427
 Alpha  occ. eigenvalues --   -0.35152  -0.33009  -0.32480
 Alpha virt. eigenvalues --   -0.01067  -0.00259  -0.00052   0.00591   0.00643
 Alpha virt. eigenvalues --    0.01279   0.01998   0.02196   0.03239   0.03535
 Alpha virt. eigenvalues --    0.04711   0.05841   0.06966   0.07604   0.07864

 Mulliken charges:
               1
     1  C   -0.696983
     2  C    0.092402
     3  C   -0.179175
     4  C   -0.197716
     5  C   -0.195677
     6  C    0.090176
     7  F   -0.101969
     8  H    0.228803
     9  H    0.237199
    10  H    0.210634
    11  H    0.238364
    12  H    0.230313
    13  O   -0.264086
    14  C    0.012860
    15  H    0.140906
    16  H    0.140906
    17  H    0.274570
    18  F   -0.268049
    19  H    0.274570
    20  F   -0.268049
 Sum of Mulliken charges =  -0.00000

 Dipole moment (field-independent basis, Debye):
    X=             -0.0036    Y=              0.7630    Z=             -0.0000  Tot=              0.7630
 Quadrupole moment (field-independent basis, Debye-Ang):
   XX=            -56.0535   YY=            -29.8315   ZZ=            -85.7232
   XY=              0.1497   XZ=              0.0000   YZ=             -0.0000

 Normal termination of Gaussian 16 at Fri Mar 29 18:58:31 2024.
