 Gaussian 16, Revision B.01,
 Gaussian 16:  ES64L-G16RevB.01 20-Dec-2017

 ----------------------------------------------------------------
 # m062x 6-311++G(d,p) opt=z-matrix scrf=(solvent=dichloroethane)
 ----------------------------------------------------------------

 ----
 test
 ----
 Symbolic Z-matrix:
 Charge =  0 Multiplicity = 1

 SCF Done:  E(RM062X) =  -747.192636569     A.U. after   14 cycles
 SCF Done:  E(RM062X) =  -747.268787955     A.U. after   13 cycles
 SCF Done:  E(RM062X) =  -747.289374044     A.U. after   12 cycles
 SCF Done:  E(RM062X) =  -747.289803854     A.U. after   10 cycles
 SCF Done:  E(RM062X) =  -747.290784880     A.U. after   10 cycles
 SCF Done:  E(RM062X) =  -747.290916266     A.U. after   10 cycles
 SCF Done:  E(RM062X) =  -747.290939667     A.U. after   10 cycles
 SCF Done:  E(RM062X) =  -747.290991464     A.U. after    9 cycles
 SCF Done:  E(RM062X) =  -747.291017431     A.U. after    9 cycles
 SCF Done:  E(RM062X) =  -747.291020059     A.U. after    9 cycles
 SCF Done:  E(RM062X) =  -747.291020274     A.U. after    7 cycles
 Optimization completed.
    -- Stationary point found.

                         Standard orientation:
 ---------------------------------------------------------------------
 Center     Atomic      Atomic             Coordinates (Angstroms)
 Number     Number       Type             X           Y           Z
 ---------------------------------------------------------------------
      1          6           0       -0.794895    0.006848    0.015986
      2          6           0       -1.484129    1.199811    0.000332
      3          6           0       -2.867013    1.199347   -0.008570
      4          6           0       -3.560025   -0.001759   -0.001741
      5          6           0       -2.862465   -1.209133    0.014103
      6          6           0       -1.464435   -1.208664    0.023102
      7          9           0        0.593819    0.007314    0.024926
      8          1           0       -0.943022    2.137640   -0.005000
      9          1           0       -3.408427    2.136454   -0.020867
     10          1           0       -4.642909   -0.002122   -0.008712
     11          1           0       -3.403328   -2.146539    0.019432
     12          1           0       -0.904766   -2.134464    0.035410
     13          8           0        3.212447    0.003621    0.041825
     14          6           0        4.417382    0.000547    0.049614
     15          1           0        4.961496    0.008842    1.006187
     16          1           0        4.973776   -0.009078   -0.899867
     17          1           0        0.908627    0.024844    1.879994
     18          9           0        0.742134    0.033354    2.789879
     19          1           0        0.960522    1.768879   -1.011907
     20          9           0        0.802794    2.552533   -1.475283
     21          1           0        0.965870   -1.794425   -0.990541
     22          9           0        0.808594   -2.586642   -1.439042
 ---------------------------------------------------------------------

 The electronic state is 1-A.
 Alpha  occ. eigenvalues --  -25.30549 -25.23805 -25.23750 -25.23030 -19.64982
 Alpha  occ. eigenvalues --  -10.65361 -10.64297 -10.57050 -10.56790 -10.56711
 Alpha  occ. eigenvalues --  -10.56463 -10.55969  -1.41347  -1.34906  -1.34845
 Alpha  occ. eigenvalues --   -1.34069  -1.19647  -0.99136  -0.87308  -0.87126
 Alpha  occ. eigenvalues --   -0.73315  -0.73131  -0.72265  -0.65924  -0.65494
 Alpha  occ. eigenvalues --   -0.65094  -0.64465  -0.60293  -0.59876  -0.59257
 Alpha  occ. eigenvalues --   -0.58657  -0.54450  -0.53599  -0.53199  -0.52160
 Alpha  occ. eigenvalues --   -0.52108  -0.51928  -0.51563  -0.51432  -0.51402
 Alpha  occ. eigenvalues --   -0.50290  -0.48173  -0.45999  -0.44649  -0.42574
 Alpha  occ. eigenvalues --   -0.35305  -0.33256  -0.32870
 Alpha virt. eigenvalues --   -0.01193  -0.00554  -0.00263   0.00353   0.00637
 Alpha virt. eigenvalues --    0.01251   0.01963   0.02056   0.03098   0.03415
 Alpha virt. eigenvalues --    0.04731   0.05712   0.06088   0.06883   0.07716

 Mulliken charges:
               1
     1  C   -0.202960
     2  C   -0.036803
     3  C   -0.255885
     4  C   -0.174436
     5  C   -0.265187
     6  C   -0.048919
     7  F   -0.166485
     8  H    0.214128
     9  H    0.243957
    10  H    0.219692
    11  H    0.245129
    12  H    0.213568
    13  O   -0.297300
    14  C    0.023451
    15  H    0.140913
    16  H    0.144569
    17  H    0.285691
    18  F   -0.275209
    19  H    0.254003
    20  F   -0.258431
    21  H    0.254319
    22  F   -0.257806
 Sum of Mulliken charges =  -0.00000

 Dipole moment (field-independent basis, Debye):
    X=              0.9126    Y=             -0.0061    Z=             -0.1486  Tot=              0.9247
 Quadrupole moment (field-independent basis, Debye-Ang):
   XX=            -33.0990   YY=            -76.4921   ZZ=            -86.9943
   XY=             -0.1224   XZ=              0.3155   YZ=             -0.1293

 Normal termination of Gaussian 16 at Mon Jan  6 19:32:01 2025.
