 Gaussian 16, Revision B.01,
 Gaussian 16:  ES64L-G16RevB.01 20-Dec-2017

 -------------------------------------------------------
 # opt=z-matrix 6-311++g(d,p) m062x scrf=(solvent=water)
 -------------------------------------------------------

 ----
 test
 ----
 Symbolic Z-matrix:
 Charge =  0 Multiplicity = 1

 SCF Done:  E(RM062X) =  -654.999087692     A.U. after   14 cycles
 SCF Done:  E(RM062X) =  -655.086296665     A.U. after   13 cycles
 SCF Done:  E(RM062X) =  -655.120614821     A.U. after   13 cycles
 SCF Done:  E(RM062X) =  -655.120880582     A.U. after   12 cycles
 SCF Done:  E(RM062X) =  -655.120913119     A.U. after   10 cycles
 SCF Done:  E(RM062X) =  -655.121093223     A.U. after   12 cycles
 SCF Done:  E(RM062X) =  -655.121204000     A.U. after   10 cycles
 SCF Done:  E(RM062X) =  -655.121224102     A.U. after    8 cycles
 SCF Done:  E(RM062X) =  -655.121228231     A.U. after    9 cycles
 SCF Done:  E(RM062X) =  -655.121094735     A.U. after   12 cycles
 SCF Done:  E(RM062X) =  -655.121236261     A.U. after    6 cycles
 SCF Done:  E(RM062X) =  -655.121236233     A.U. after    8 cycles
 SCF Done:  E(RM062X) =  -655.121236280     A.U. after    4 cycles
 SCF Done:  E(RM062X) =  -655.121236274     A.U. after    6 cycles
 SCF Done:  E(RM062X) =  -655.121236251     A.U. after    8 cycles
 SCF Done:  E(RM062X) =  -655.121236282     A.U. after    4 cycles
 SCF Done:  E(RM062X) =  -655.121236278     A.U. after    6 cycles
 SCF Done:  E(RM062X) =  -655.121236263     A.U. after    8 cycles
 SCF Done:  E(RM062X) =  -655.121236284     A.U. after    4 cycles
 SCF Done:  E(RM062X) =  -655.121236283     A.U. after    6 cycles
 Optimization completed.
    -- Stationary point found.

                         Standard orientation:
 ---------------------------------------------------------------------
 Center     Atomic      Atomic             Coordinates (Angstroms)
 Number     Number       Type             X           Y           Z
 ---------------------------------------------------------------------
      1          6           0       -1.426852    0.856413   -0.056286
      2          6           0       -2.118149    0.769330    1.144651
      3          6           0       -3.440192    0.337322    1.156329
      4          6           0       -4.068424   -0.006743   -0.032621
      5          6           0       -3.377304    0.080318   -1.233249
      6          6           0       -2.066473    0.546331   -1.249062
      7          9           0       -0.143221    1.275870   -0.067625
      8          1           0       -1.627516    1.038036    2.073190
      9          1           0       -3.979260    0.269415    2.092810
     10          1           0       -5.098019   -0.343188   -0.023526
     11          1           0       -3.867335   -0.188059   -2.160649
     12          1           0       -1.515908    0.579681   -2.182368
     13          8           0        3.229295    2.377918   -0.097417
     14          6           0        4.374560    2.751917   -0.109623
     15          1           0        5.192706    2.022581   -0.009868
     16          1           0        4.602520    3.823059   -0.219045
     17          1           0        0.847305   -0.570936    0.157069
     18          7           0        1.321373   -1.454925    0.262848
     19          6           0        1.663481   -2.161137   -0.835168
     20          8           0        2.239111   -3.239094   -0.785633
     21          6           0        1.651098   -1.998026    1.570034
     22          1           0        2.156484   -2.952660    1.472188
     23          1           0        2.308447   -1.318216    2.115771
     24          1           0        0.747587   -2.149473    2.164147
     25          1           0        1.374635   -1.673528   -1.776659
 ---------------------------------------------------------------------

 The electronic state is 1-A.
 Alpha  occ. eigenvalues --  -25.27422 -19.64633 -19.60037 -14.77853 -10.64631
 Alpha  occ. eigenvalues --  -10.64252 -10.63940 -10.56459 -10.56008 -10.56005
 Alpha  occ. eigenvalues --  -10.55887 -10.55882 -10.55190  -1.39247  -1.19307
 Alpha  occ. eigenvalues --   -1.16927  -1.03519  -0.98120  -0.86393  -0.86027
 Alpha  occ. eigenvalues --   -0.80851  -0.72292  -0.71888  -0.71608  -0.68300
 Alpha  occ. eigenvalues --   -0.64264  -0.63157  -0.58869  -0.58728  -0.58338
 Alpha  occ. eigenvalues --   -0.58191  -0.54431  -0.54037  -0.52811  -0.52509
 Alpha  occ. eigenvalues --   -0.50591  -0.49581  -0.49434  -0.47837  -0.45890
 Alpha  occ. eigenvalues --   -0.45686  -0.44955  -0.43942  -0.41659  -0.34944
 Alpha  occ. eigenvalues --   -0.34739  -0.32643  -0.32577  -0.31608
 Alpha virt. eigenvalues --   -0.00790  -0.00496   0.00276   0.00551   0.00868
 Alpha virt. eigenvalues --    0.01081   0.01694   0.01943   0.02727   0.02922
 Alpha virt. eigenvalues --    0.03766   0.03921   0.04257   0.04933   0.05065

 Mulliken charges:
               1
     1  C   -0.612962
     2  C    0.268287
     3  C   -0.387666
     4  C   -0.184396
     5  C   -0.381201
     6  C    0.247682
     7  F   -0.131940
     8  H    0.259798
     9  H    0.245062
    10  H    0.225544
    11  H    0.246440
    12  H    0.249871
    13  O   -0.295702
    14  C    0.038389
    15  H    0.140274
    16  H    0.134339
    17  H    0.233353
    18  N   -0.150737
    19  C    0.107285
    20  O   -0.494101
    21  C   -0.474371
    22  H    0.192605
    23  H    0.187912
    24  H    0.180112
    25  H    0.156125
 Sum of Mulliken charges =  -0.00000

 Dipole moment (field-independent basis, Debye):
    X=             -1.6603    Y=              4.7057    Z=              1.6498  Tot=              5.2557
 Quadrupole moment (field-independent basis, Debye-Ang):
   XX=            -52.4837   YY=            -95.0408   ZZ=            -67.0541
   XY=             24.8334   XZ=              3.7287   YZ=             -5.3755

 Normal termination of Gaussian 16 at Thu Mar 28 17:59:36 2024.
