 Gaussian 16, Revision B.01,
 Gaussian 16:  ES64L-G16RevB.01 20-Dec-2017

 ------------------------------------------------------------------
 # opt=(z-matrix,recalc=5) 6-311++g(d,p) m062x scrf=(solvent=water)
 ------------------------------------------------------------------

 ----
 test
 ----
 Symbolic Z-matrix:
 Charge =  0 Multiplicity = 1

 SCF Done:  E(RM062X) =  -1073.31636730     A.U. after   14 cycles
 SCF Done:  E(RM062X) =  -1073.42224575     A.U. after   12 cycles
 SCF Done:  E(RM062X) =  -1073.48595500     A.U. after   14 cycles
 SCF Done:  E(RM062X) =  -1073.48739054     A.U. after   12 cycles
 SCF Done:  E(RM062X) =  -1073.48772224     A.U. after   11 cycles
 SCF Done:  E(RM062X) =  -1073.48775283     A.U. after   11 cycles
 SCF Done:  E(RM062X) =  -1073.48777956     A.U. after   11 cycles
 SCF Done:  E(RM062X) =  -1073.48783030     A.U. after    9 cycles
 SCF Done:  E(RM062X) =  -1073.48782797     A.U. after   11 cycles
 SCF Done:  E(RM062X) =  -1073.48783943     A.U. after    9 cycles
 SCF Done:  E(RM062X) =  -1073.48783979     A.U. after    7 cycles
 Optimization completed.
    -- Stationary point found.

                         Standard orientation:
 ---------------------------------------------------------------------
 Center     Atomic      Atomic             Coordinates (Angstroms)
 Number     Number       Type             X           Y           Z
 ---------------------------------------------------------------------
      1          6           0       -0.086951   -0.020306    1.451955
      2          6           0       -1.294677    0.135482    2.118555
      3          6           0       -1.326422    0.136569    3.508545
      4          6           0       -0.150735   -0.018090    4.229619
      5          6           0        1.056736   -0.173845    3.563160
      6          6           0        1.083663   -0.210637    2.173008
      7          9           0       -0.055837   -0.021371    0.089619
      8          1           0       -2.212303    0.256194    1.555755
      9          1           0       -2.268157    0.258046    4.028333
     10          1           0       -0.175463   -0.017243    5.312368
     11          1           0        1.973750   -0.294476    4.125584
     12          1           0        2.030254   -0.295926    1.653534
     13          8           0        0.017171   -0.023870   -3.107133
     14          6           0        0.046768   -0.025083   -4.311722
     15          1           0        0.182614    0.919671   -4.859827
     16          1           0       -0.063525   -0.970757   -4.863974
     17          1           0        0.222373    2.050472   -0.274200
     18          7           0        0.356295    3.034575   -0.447010
     19          6           0        1.608904    3.529693   -0.533875
     20          8           0        1.849222    4.710588   -0.741237
     21          6           0       -0.764729    3.945839   -0.607112
     22          1           0       -0.414592    4.956887   -0.784639
     23          1           0       -1.387436    3.646859   -1.452771
     24          1           0       -1.387552    3.952862    0.289737
     25          1           0        2.390630    2.768659   -0.400177
     26          1           0       -2.172377   -0.905964   -0.364195
     27          7           0       -3.084822   -1.288251   -0.558345
     28          6           0       -4.139202   -0.455212   -0.697813
     29          8           0       -5.272970   -0.844749   -0.933364
     30          6           0       -3.305346   -2.718635   -0.694359
     31          1           0       -4.349296   -2.927624   -0.901283
     32          1           0       -2.707302   -3.125244   -1.512205
     33          1           0       -3.028177   -3.240848    0.223510
     34          1           0       -3.877457    0.606199   -0.578746
     35          1           0        1.811563   -1.443605   -0.279342
     36          7           0        2.604256   -2.046198   -0.437385
     37          6           0        3.840900   -1.509311   -0.525931
     38          8           0        4.847349   -2.175369   -0.715997
     39          6           0        2.459356   -3.486079   -0.574322
     40          1           0        3.423670   -3.954546   -0.738276
     41          1           0        2.019385   -3.917137    0.327134
     42          1           0        1.813197   -3.730233   -1.419752
     43          1           0        3.852860   -0.415920   -0.410368
 ---------------------------------------------------------------------

 The electronic state is 1-A.
 Alpha  occ. eigenvalues --  -25.28695 -19.64626 -19.60303 -19.60289 -19.60087
 Alpha  occ. eigenvalues --  -14.78243 -14.78232 -14.77924 -10.64981 -10.64938
 Alpha  occ. eigenvalues --  -10.64920 -10.64688 -10.63929 -10.56654 -10.56647
 Alpha  occ. eigenvalues --  -10.56625 -10.56616 -10.56508 -10.56343 -10.56337
 Alpha  occ. eigenvalues --  -10.55605  -1.40111  -1.19283  -1.17231  -1.17214
 Alpha  occ. eigenvalues --   -1.16979  -1.03850  -1.03831  -1.03581  -0.98703
 Alpha  occ. eigenvalues --   -0.86966  -0.86642  -0.81079  -0.81063  -0.80896
 Alpha  occ. eigenvalues --   -0.72622  -0.72403  -0.72132  -0.68575  -0.68462
 Alpha  occ. eigenvalues --   -0.68352  -0.64886  -0.63399  -0.63321  -0.63234
 Alpha  occ. eigenvalues --   -0.59718  -0.59608  -0.58775  -0.58325  -0.54718
 Alpha  occ. eigenvalues --   -0.54698  -0.54483  -0.54004  -0.53274  -0.53097
 Alpha  occ. eigenvalues --   -0.52854  -0.52744  -0.51253  -0.50496  -0.49798
 Alpha  occ. eigenvalues --   -0.49712  -0.49491  -0.47820  -0.46111  -0.46095
 Alpha  occ. eigenvalues --   -0.45933  -0.45906  -0.45842  -0.45781  -0.45482
 Alpha  occ. eigenvalues --   -0.44391  -0.42248  -0.34989  -0.34973  -0.34936
 Alpha  occ. eigenvalues --   -0.34757  -0.33259  -0.32908  -0.32685  -0.32615
 Alpha  occ. eigenvalues --   -0.32124
 Alpha virt. eigenvalues --   -0.01017  -0.00897  -0.00274  -0.00095   0.00138
 Alpha virt. eigenvalues --    0.00476   0.00811   0.01648   0.01800   0.02058
 Alpha virt. eigenvalues --    0.02123   0.02273   0.02676   0.03195   0.03871

 Mulliken charges:
               1
     1  C    0.374354
     2  C    0.042167
     3  C   -0.400830
     4  C   -0.552270
     5  C   -0.475498
     6  C    0.168863
     7  F   -0.049860
     8  H    0.062911
     9  H    0.278513
    10  H    0.219175
    11  H    0.276769
    12  H    0.116026
    13  O   -0.254469
    14  C    0.033977
    15  H    0.135390
    16  H    0.138184
    17  H    0.129504
    18  N   -0.074900
    19  C    0.075305
    20  O   -0.475473
    21  C   -0.451895
    22  H    0.188221
    23  H    0.193675
    24  H    0.187663
    25  H    0.194913
    26  H    0.083196
    27  N   -0.056571
    28  C    0.106441
    29  O   -0.479917
    30  C   -0.441641
    31  H    0.190127
    32  H    0.192873
    33  H    0.187060
    34  H    0.174833
    35  H    0.097126
    36  N   -0.060523
    37  C    0.093181
    38  O   -0.474273
    39  C   -0.447314
    40  H    0.190574
    41  H    0.187278
    42  H    0.192892
    43  H    0.184244
 Sum of Mulliken charges =  -0.00000

 Dipole moment (field-independent basis, Debye):
    X=             -2.7064    Y=             -3.5900    Z=              2.1118  Tot=              4.9671
 Quadrupole moment (field-independent basis, Debye-Ang):
   XX=           -200.0779   YY=           -155.6268   ZZ=            -93.9123
   XY=             -7.6947   XZ=              0.2211   YZ=              3.2273

  Exact polarizability: 275.838  -2.951 213.690  -0.254  -1.071 232.460
 Approx polarizability: 255.567  -3.038 194.377  -0.371  -1.048 222.398

 Normal termination of Gaussian 16 at Sat Mar 30 09:56:28 2024.
