 Gaussian 16, Revision B.01,
 Gaussian 16:  ES64L-G16RevB.01 20-Dec-2017

 ----------------------------------
 # m062x 6-311++G(d,p) opt=z-matrix
 ----------------------------------

 ----
 test
 ----
 Symbolic Z-matrix:
 Charge =  0 Multiplicity = 1

 SCF Done:  E(RM062X) =  -646.727505801     A.U. after   13 cycles
 SCF Done:  E(RM062X) =  -646.802846252     A.U. after   12 cycles
 SCF Done:  E(RM062X) =  -646.822159715     A.U. after   12 cycles
 SCF Done:  E(RM062X) =  -646.822245675     A.U. after   10 cycles
 SCF Done:  E(RM062X) =  -646.822294241     A.U. after   10 cycles
 SCF Done:  E(RM062X) =  -646.822316108     A.U. after   10 cycles
 SCF Done:  E(RM062X) =  -646.822322012     A.U. after    8 cycles
 SCF Done:  E(RM062X) =  -646.822322434     A.U. after    7 cycles
 SCF Done:  E(RM062X) =  -646.822322762     A.U. after    7 cycles
 SCF Done:  E(RM062X) =  -646.822323060     A.U. after    6 cycles
 SCF Done:  E(RM062X) =  -646.822323242     A.U. after    7 cycles
 SCF Done:  E(RM062X) =  -646.822323267     A.U. after    7 cycles
 Optimization completed.
    -- Stationary point found.

                         Standard orientation:
 ---------------------------------------------------------------------
 Center     Atomic      Atomic             Coordinates (Angstroms)
 Number     Number       Type             X           Y           Z
 ---------------------------------------------------------------------
      1          6           0       -0.006318   -0.751260   -0.000000
      2          6           0       -1.204644   -1.443114   -0.000000
      3          6           0       -1.204644   -2.830110   -0.000000
      4          6           0       -0.003007   -3.523875   -0.000000
      5          6           0        1.201455   -2.828479    0.000000
      6          6           0        1.201455   -1.435117    0.000000
      7          9           0       -0.006318    0.620583   -0.000000
      8          1           0       -2.139639   -0.903294   -0.000000
      9          1           0       -2.142177   -3.371395   -0.000000
     10          1           0       -0.003007   -4.607034   -0.000000
     11          1           0        2.138955   -3.369745    0.000000
     12          1           0        2.131601   -0.887637    0.000000
     13          8           0       -0.001302    3.494451   -0.000000
     14          6           0        0.002210    4.694539    0.000000
     15          1           0        0.003074    5.246101    0.955334
     16          1           0        0.003074    5.246101   -0.955334
     17          1           0        2.355934    1.037112    0.000000
     18          9           0        3.263771    0.877036    0.000000
     19          1           0       -2.340165    1.032103   -0.000000
     20          9           0       -3.248150    0.872001   -0.000000
 ---------------------------------------------------------------------

 The electronic state is 1-A'.
 Alpha  occ. eigenvalues --  -25.27471 -25.23225 -25.23170 -19.65374 -10.64937
 Alpha  occ. eigenvalues --  -10.64341 -10.56260 -10.56155 -10.56032 -10.55907
 Alpha  occ. eigenvalues --  -10.55545  -1.38556  -1.34411  -1.34356  -1.20238
 Alpha  occ. eigenvalues --   -0.98334  -0.86684  -0.86250  -0.73450  -0.72366
 Alpha  occ. eigenvalues --   -0.71534  -0.64383  -0.64105  -0.64073  -0.59456
 Alpha  occ. eigenvalues --   -0.58886  -0.58708  -0.58195  -0.54651  -0.53557
 Alpha  occ. eigenvalues --   -0.53100  -0.51445  -0.51397  -0.50688  -0.50476
 Alpha  occ. eigenvalues --   -0.49257  -0.48644  -0.45049  -0.44205  -0.41837
 Alpha  occ. eigenvalues --   -0.35655  -0.32686  -0.31827
 Alpha virt. eigenvalues --   -0.01931  -0.00605   0.00087   0.00205   0.01234
 Alpha virt. eigenvalues --    0.01354   0.01416   0.02452   0.02831   0.03448
 Alpha virt. eigenvalues --    0.05642   0.05734   0.06389   0.07195   0.08333

 Mulliken charges:
               1
     1  C    0.431466
     2  C   -0.205379
     3  C   -0.308875
     4  C   -0.201530
     5  C   -0.311120
     6  C   -0.201768
     7  F   -0.186182
     8  H    0.144171
     9  H    0.219345
    10  H    0.196954
    11  H    0.220396
    12  H    0.138476
    13  O   -0.244188
    14  C    0.015373
    15  H    0.119010
    16  H    0.119010
    17  H    0.242858
    18  F   -0.214914
    19  H    0.241603
    20  F   -0.214707
 Sum of Mulliken charges =  -0.00000

 Dipole moment (field-independent basis, Debye):
    X=              0.0040    Y=              1.1342    Z=             -0.0000  Tot=              1.1342
 Quadrupole moment (field-independent basis, Debye-Ang):
   XX=            -77.5745   YY=            -33.9587   ZZ=            -66.8159
   XY=              0.0797   XZ=             -0.0000   YZ=              0.0000

 Normal termination of Gaussian 16 at Thu Jul  4 16:18:41 2024.
