 Gaussian 16, Revision B.01,
 Gaussian 16:  ES64L-G16RevB.01 20-Dec-2017

 ----------------------------------
 # m062x 6-311++G(d,p) opt=z-matrix
 ----------------------------------

 ----
 test
 ----
 Symbolic Z-matrix:
 Charge =  0 Multiplicity = 1

 SCF Done:  E(RM062X) =  -546.279587965     A.U. after   14 cycles
 SCF Done:  E(RM062X) =  -546.355636113     A.U. after   13 cycles
 SCF Done:  E(RM062X) =  -546.376783774     A.U. after   13 cycles
 SCF Done:  E(RM062X) =  -546.377263816     A.U. after   11 cycles
 SCF Done:  E(RM062X) =  -546.377919411     A.U. after   11 cycles
 SCF Done:  E(RM062X) =  -546.378115837     A.U. after   11 cycles
 SCF Done:  E(RM062X) =  -546.378147831     A.U. after   10 cycles
 SCF Done:  E(RM062X) =  -546.378149232     A.U. after    9 cycles
 SCF Done:  E(RM062X) =  -546.378149642     A.U. after    9 cycles
 SCF Done:  E(RM062X) =  -546.378150131     A.U. after    8 cycles
 SCF Done:  E(RM062X) =  -546.378150582     A.U. after    8 cycles
 SCF Done:  E(RM062X) =  -546.378150758     A.U. after    7 cycles
 SCF Done:  E(RM062X) =  -546.378150793     A.U. after    7 cycles
 Optimization completed.
    -- Stationary point found.

                         Standard orientation:
 ---------------------------------------------------------------------
 Center     Atomic      Atomic             Coordinates (Angstroms)
 Number     Number       Type             X           Y           Z
 ---------------------------------------------------------------------
      1          6           0       -0.631175   -0.318040   -0.010958
      2          6           0       -1.319291   -0.263343   -1.203948
      3          6           0       -2.700457   -0.191314   -1.202930
      4          6           0       -3.393022   -0.174123   -0.001557
      5          6           0       -2.696884   -0.229458    1.205342
      6          6           0       -1.301065   -0.302251    1.204313
      7          9           0        0.720719   -0.388542   -0.011954
      8          1           0       -0.778119   -0.276777   -2.142704
      9          1           0       -3.241009   -0.148347   -2.140089
     10          1           0       -4.474603   -0.117718   -0.000760
     11          1           0       -3.237551   -0.216037    2.143222
     12          1           0       -0.742540   -0.345992    2.131079
     13          8           0        3.571984   -0.537317   -0.009073
     14          6           0        4.769574   -0.599828   -0.006444
     15          1           0        5.370319    0.325619    0.009056
     16          1           0        5.270840   -1.582901   -0.021024
     17          1           0        1.141937    1.437822    0.016859
     18          9           0        1.029144    2.354432    0.031292
 ---------------------------------------------------------------------

 The electronic state is 1-A.
 Alpha  occ. eigenvalues --  -25.26935 -25.20050 -19.64578 -10.64121 -10.63815
 Alpha  occ. eigenvalues --  -10.56091 -10.55955 -10.55863 -10.55710 -10.55310
 Alpha  occ. eigenvalues --   -1.38768  -1.31155  -1.19455  -0.98032  -0.86414
 Alpha  occ. eigenvalues --   -0.85876  -0.72699  -0.71937  -0.71319  -0.64196
 Alpha  occ. eigenvalues --   -0.62402  -0.58702  -0.58585  -0.58200  -0.57039
 Alpha  occ. eigenvalues --   -0.53773  -0.52571  -0.50805  -0.49402  -0.48399
 Alpha  occ. eigenvalues --   -0.48398  -0.47801  -0.44700  -0.44094  -0.41843
 Alpha  occ. eigenvalues --   -0.34852  -0.32422  -0.31407
 Alpha virt. eigenvalues --   -0.01141  -0.00185   0.00229   0.00515   0.01136
 Alpha virt. eigenvalues --    0.01466   0.01856   0.02664   0.03228   0.03702
 Alpha virt. eigenvalues --    0.05402   0.06685   0.06998   0.07376   0.08352

 Mulliken charges:
               1
     1  C   -0.504948
     2  C    0.068706
     3  C   -0.166004
     4  C   -0.224029
     5  C   -0.175957
     6  C    0.055280
     7  F   -0.110205
     8  H    0.219006
     9  H    0.210270
    10  H    0.196966
    11  H    0.211113
    12  H    0.220064
    13  O   -0.235285
    14  C    0.015348
    15  H    0.117737
    16  H    0.112082
    17  H    0.243268
    18  F   -0.253412
 Sum of Mulliken charges =  -0.00000

 Dipole moment (field-independent basis, Debye):
    X=              0.7097    Y=             -2.2679    Z=             -0.0355  Tot=              2.3766
 Quadrupole moment (field-independent basis, Debye-Ang):
   XX=            -30.6609   YY=            -68.3999   ZZ=            -51.4322
   XY=             -3.8504   XZ=              0.0556   YZ=             -0.2595

 Normal termination of Gaussian 16 at Thu Mar 28 13:44:46 2024.
