 Gaussian 16, Revision B.01,
 Gaussian 16:  ES64L-G16RevB.01 20-Dec-2017

 ----------------------------------------------------------------
 # opt=z-matrix 6-311++g(d,p) m062x scrf=(solvent=dichloroethane)
 ----------------------------------------------------------------

 ----
 test
 ----
 Symbolic Z-matrix:
 Charge =  0 Multiplicity = 1

 SCF Done:  E(RM062X) =  -654.996520090     A.U. after   14 cycles
 SCF Done:  E(RM062X) =  -655.083759523     A.U. after   12 cycles
 SCF Done:  E(RM062X) =  -655.118101976     A.U. after   13 cycles
 SCF Done:  E(RM062X) =  -655.118341672     A.U. after   12 cycles
 SCF Done:  E(RM062X) =  -655.118340139     A.U. after   10 cycles
 SCF Done:  E(RM062X) =  -655.118471960     A.U. after   11 cycles
 SCF Done:  E(RM062X) =  -655.118599289     A.U. after   11 cycles
 SCF Done:  E(RM062X) =  -655.118559951     A.U. after   11 cycles
 SCF Done:  E(RM062X) =  -655.118645339     A.U. after   10 cycles
 SCF Done:  E(RM062X) =  -655.118647345     A.U. after    9 cycles
 SCF Done:  E(RM062X) =  -655.118647906     A.U. after    7 cycles
 SCF Done:  E(RM062X) =  -655.118647862     A.U. after    6 cycles
 SCF Done:  E(RM062X) =  -655.118647949     A.U. after    5 cycles
 SCF Done:  E(RM062X) =  -655.118647858     A.U. after    6 cycles
 SCF Done:  E(RM062X) =  -655.118647972     A.U. after    5 cycles
 SCF Done:  E(RM062X) =  -655.118647758     A.U. after    7 cycles
 SCF Done:  E(RM062X) =  -655.118647985     A.U. after    5 cycles
 SCF Done:  E(RM062X) =  -655.118647881     A.U. after    7 cycles
 SCF Done:  E(RM062X) =  -655.118647997     A.U. after    5 cycles
 SCF Done:  E(RM062X) =  -655.118647881     A.U. after    7 cycles
 Optimization completed.
    -- Stationary point found.

                         Standard orientation:
 ---------------------------------------------------------------------
 Center     Atomic      Atomic             Coordinates (Angstroms)
 Number     Number       Type             X           Y           Z
 ---------------------------------------------------------------------
      1          6           0       -1.425811    0.851634   -0.056381
      2          6           0       -2.116606    0.761713    1.144564
      3          6           0       -3.436504    0.323577    1.156444
      4          6           0       -4.063124   -0.023768   -0.032260
      5          6           0       -3.372539    0.066126   -1.232839
      6          6           0       -2.064013    0.538196   -1.248986
      7          9           0       -0.144807    1.276859   -0.067911
      8          1           0       -1.627195    1.033001    2.072981
      9          1           0       -3.975207    0.253454    2.092976
     10          1           0       -5.091122   -0.365008   -0.023006
     11          1           0       -3.861355   -0.204833   -2.160129
     12          1           0       -1.513665    0.573818   -2.182309
     13          8           0        3.193546    2.385013   -0.097960
     14          6           0        4.336276    2.764095   -0.110334
     15          1           0        5.158131    2.038348   -0.010348
     16          1           0        4.559314    3.836672   -0.220153
     17          1           0        0.854792   -0.566059    0.157427
     18          7           0        1.332934   -1.447692    0.263454
     19          6           0        1.678577   -2.153250   -0.835286
     20          8           0        2.258556   -3.227232   -0.785493
     21          6           0        1.665125   -1.988619    1.570291
     22          1           0        2.175007   -2.941005    1.472717
     23          1           0        2.319400   -1.305488    2.115846
     24          1           0        0.762213   -2.144118    2.164592
     25          1           0        1.387315   -1.667134   -1.777234
 ---------------------------------------------------------------------

 The electronic state is 1-A.
 Alpha  occ. eigenvalues --  -25.27352 -19.64577 -19.59774 -14.77655 -10.64422
 Alpha  occ. eigenvalues --  -10.64256 -10.63921 -10.56379 -10.56043 -10.56040
 Alpha  occ. eigenvalues --  -10.55934 -10.55930 -10.55235  -1.39200  -1.19283
 Alpha  occ. eigenvalues --   -1.16724  -1.03335  -0.98148  -0.86438  -0.86048
 Alpha  occ. eigenvalues --   -0.80722  -0.72298  -0.71933  -0.71607  -0.68128
 Alpha  occ. eigenvalues --   -0.64275  -0.63010  -0.58867  -0.58660  -0.58347
 Alpha  occ. eigenvalues --   -0.58238  -0.54209  -0.53953  -0.52667  -0.52573
 Alpha  occ. eigenvalues --   -0.50646  -0.49585  -0.49252  -0.47790  -0.45715
 Alpha  occ. eigenvalues --   -0.45578  -0.44951  -0.44001  -0.41714  -0.34882
 Alpha  occ. eigenvalues --   -0.34467  -0.32638  -0.32409  -0.31587
 Alpha virt. eigenvalues --   -0.00805  -0.00490   0.00242   0.00500   0.00827
 Alpha virt. eigenvalues --    0.01081   0.01740   0.01872   0.02695   0.02906
 Alpha virt. eigenvalues --    0.03733   0.03963   0.04354   0.05005   0.05142

 Mulliken charges:
               1
     1  C   -0.612213
     2  C    0.263279
     3  C   -0.376667
     4  C   -0.182400
     5  C   -0.367676
     6  C    0.240835
     7  F   -0.128289
     8  H    0.255958
     9  H    0.241207
    10  H    0.221770
    11  H    0.242892
    12  H    0.245339
    13  O   -0.285758
    14  C    0.037090
    15  H    0.136759
    16  H    0.130385
    17  H    0.228651
    18  N   -0.145735
    19  C    0.105723
    20  O   -0.481922
    21  C   -0.475093
    22  H    0.194252
    23  H    0.186303
    24  H    0.177096
    25  H    0.148213
 Sum of Mulliken charges =  -0.00000

 Dipole moment (field-independent basis, Debye):
    X=             -1.6550    Y=              4.5989    Z=              1.5965  Tot=              5.1417
 Quadrupole moment (field-independent basis, Debye-Ang):
   XX=            -53.5004   YY=            -94.4291   ZZ=            -67.3044
   XY=             24.2933   XZ=              3.6825   YZ=             -5.2256

 Normal termination of Gaussian 16 at Mon Jan  6 20:51:53 2025.
